     216
 Properties=species:S:1:pos:R:3:velocities:R:3:forces:R:3:local_energy:R:1:fix_atoms:S:3 Lattice="16.2900000000       0.0000000000    0.0000000000    0.0000000000   16.2900000000    0.0000000000    0.0000000000    0.0000000000   16.2900000000" temperature=2.38651866 pressure=14277.90020356 time_step=0.1000 time=10.000000 energy=-1000.197336 virial="38.47847331           0.23428941     -0.28380258      0.23428941     38.47776112      0.12766305     -0.28380258      0.12766305     38.47934802" stress="-0.00890132          -0.00005420      0.00006565     -0.00005420     -0.00890116     -0.00002953      0.00006565     -0.00002953     -0.00890153" volume=4322.781189 step=100
 Si             0.00189298       0.00202485      16.28817403       0.0       0.0      -0.0      -0.0	0.0	0.0	0.0 F F F
 Si             1.35450762       1.35954886       1.36061011      -0.0       0.0       0.0       0.0	0.0	0.0	0.0 F F F
 Si             0.00243532       2.71228983       2.71225113       0.0       0.0       0.0      -0.0	0.0	0.0	0.0 F F F
 Si             1.35864758       4.07132864       4.07197458       0.0      -0.0      -0.0      -0.0	0.0	0.0	0.0 F F F
 Si             2.71381837      16.28777216       2.71617498      -0.0      -0.0       0.0       0.0	0.0	0.0	0.0 F F F
 Si             4.07347509       1.35803664       4.07277754       0.0      -0.0       0.0      -0.0	0.0	0.0	0.0 F F F
 Si             2.71254475       2.71492679      16.28802593      -0.0      -0.0      -0.0      -0.0	0.0	0.0	0.0 F F F
 Si             4.06969446       4.07334105       1.36165380      -0.0      -0.0       0.0       0.0	0.0	0.0	0.0 F F F
 Si             0.00005689       0.00007423       5.42859652       0.0       0.0      -0.0      -0.0	0.0	0.0	0.0 F F F
 Si             1.35507690       1.35968800       6.78909427      -0.0       0.0       0.0       0.0	0.0	0.0	0.0 F F F
 Si             0.00057691       2.71238350       8.14253058      -0.0      -0.0      -0.0      -0.0	0.0	0.0	0.0 F F F
 Si             1.35915815       4.07332278       9.50368333       0.0       0.0       0.0       0.0	0.0	0.0	0.0 F F F
 Si             2.71320974      16.28804842       8.14868030      -0.0      -0.0       0.0       0.0	0.0	0.0	0.0 F F F
 Si             4.07274687       1.35828985       9.50228655       0.0       0.0      -0.0       0.0	0.0	0.0	0.0 F F F
 Si             2.71557481       2.71505403       5.42831644      -0.0       0.0      -0.0       0.0	0.0	0.0	0.0 F F F
 Si             4.07141642       4.07367291       6.78927208      -0.0       0.0       0.0      -0.0	0.0	0.0	0.0 F F F
 Si             0.00254229       0.00252722      10.86150232       0.0       0.0       0.0       0.0	0.0	0.0	0.0 F F F
 Si             1.35513302       1.35490807      12.21595484      -0.0      -0.0      -0.0      -0.0	0.0	0.0	0.0 F F F
 Si            16.28798681       2.71671715      13.57325445       0.0       0.0      -0.0      -0.0	0.0	0.0	0.0 F F F
 Si             1.35974258       4.07293717      14.93187021       0.0      -0.0       0.0       0.0	0.0	0.0	0.0 F F F
 Si             2.71450488      16.28645375      13.57517089       0.0      -0.0      -0.0       0.0	0.0	0.0	0.0 F F F
 Si             4.07158633       1.35652042      14.93288146      -0.0       0.0       0.0       0.0	0.0	0.0	0.0 F F F
 Si             2.71487003       2.71486405      10.85931976      -0.0      -0.0       0.0      -0.0	0.0	0.0	0.0 F F F
 Si             4.07309492       4.07164605      12.21688828       0.0      -0.0      -0.0       0.0	0.0	0.0	0.0 F F F
 Si            16.28812438       5.42862521       0.00179793      -0.0      -0.0       0.0      -0.0	0.0	0.0	0.0 F F F
 Si             1.36019849       6.78775260       1.35583905       0.0      -0.0      -0.0      -0.0	0.0	0.0	0.0 F F F
 Si             0.00038259       8.14655748       2.71655620      -0.0       0.0       0.0       0.0	0.0	0.0	0.0 F F F
 Si             1.35679565       9.50163716       4.07286080      -0.0       0.0       0.0      -0.0	0.0	0.0	0.0 F F F
 Si             2.71554855       5.42927249       2.71275875      -0.0       0.0      -0.0      -0.0	0.0	0.0	0.0 F F F
 Si             4.07480877       6.78603616       4.07239633       0.0      -0.0       0.0      -0.0	0.0	0.0	0.0 F F F
 Si             2.71262324       8.14316815       0.00131072      -0.0      -0.0       0.0      -0.0	0.0	0.0	0.0 F F F
 Si             4.07326911       9.50309322       1.35773503      -0.0      -0.0       0.0       0.0	0.0	0.0	0.0 F F F
 Si            16.28879368       5.43187371       5.42962729      -0.0       0.0      -0.0       0.0	0.0	0.0	0.0 F F F
 Si             1.35817723       6.78821132       6.78840519       0.0       0.0       0.0      -0.0	0.0	0.0	0.0 F F F
 Si             0.00150162       8.14585075       8.14429133       0.0      -0.0      -0.0       0.0	0.0	0.0	0.0 F F F
 Si             1.35570154       9.49966365       9.50295754      -0.0      -0.0       0.0      -0.0	0.0	0.0	0.0 F F F
 Si             2.71500868       5.42894980       8.14252593       0.0      -0.0      -0.0      -0.0	0.0	0.0	0.0 F F F
 Si             4.07176321       6.78821530       9.50536547      -0.0      -0.0       0.0      -0.0	0.0	0.0	0.0 F F F
 Si             2.71295158       8.14649510       5.43106756      -0.0      -0.0       0.0       0.0	0.0	0.0	0.0 F F F
 Si             4.07342280       9.50159411       6.78717855       0.0       0.0       0.0      -0.0	0.0	0.0	0.0 F F F
 Si             0.00196091       5.43192599      10.86278913       0.0       0.0       0.0       0.0	0.0	0.0	0.0 F F F
 Si             1.35531845       6.78523270      12.21480961      -0.0      -0.0      -0.0       0.0	0.0	0.0	0.0 F F F
 Si             0.00002676       8.14605371      13.57425415      -0.0       0.0      -0.0       0.0	0.0	0.0	0.0 F F F
 Si             1.35784927       9.50082901      14.93293116      -0.0      -0.0       0.0      -0.0	0.0	0.0	0.0 F F F
 Si             2.71255886       5.42860486      13.57738966      -0.0      -0.0       0.0       0.0	0.0	0.0	0.0 F F F
 Si             4.07265301       6.78808311      14.93240649       0.0       0.0       0.0      -0.0	0.0	0.0	0.0 F F F
 Si             2.71625590       8.14410367      10.85866057      -0.0      -0.0      -0.0      -0.0	0.0	0.0	0.0 F F F
 Si             4.07040441       9.50554958      12.21711615      -0.0       0.0      -0.0      -0.0	0.0	0.0	0.0 F F F
 Si            16.28845167      10.86046629       0.00151798      -0.0       0.0       0.0      -0.0	0.0	0.0	0.0 F F F
 Si             1.35596648      12.21721361       1.35758324      -0.0       0.0      -0.0       0.0	0.0	0.0	0.0 F F F
 Si            16.28904569      13.57390871       2.71409203      -0.0       0.0      -0.0      -0.0	0.0	0.0	0.0 F F F
 Si             1.35805394      14.93783355       4.06933972       0.0       0.0      -0.0      -0.0	0.0	0.0	0.0 F F F
 Si             2.71517980      10.85870986       2.71552943       0.0      -0.0       0.0      -0.0	0.0	0.0	0.0 F F F
 Si             4.07228831      12.21780931       4.07388079      -0.0      -0.0       0.0       0.0	0.0	0.0	0.0 F F F
 Si             2.71641710      13.57456098       0.00006473      -0.0       0.0       0.0      -0.0	0.0	0.0	0.0 F F F
 Si             4.07419298      14.93353395       1.35843013       0.0       0.0      -0.0       0.0	0.0	0.0	0.0 F F F
 Si            16.28952784      10.85759916       5.42903525      -0.0      -0.0      -0.0       0.0	0.0	0.0	0.0 F F F
 Si             1.35918769      12.21864135       6.78944925       0.0       0.0       0.0       0.0	0.0	0.0	0.0 F F F
 Si             0.00101275      13.57563212       8.14338574       0.0       0.0       0.0      -0.0	0.0	0.0	0.0 F F F
 Si             1.35866567      14.93470980       9.50035805       0.0       0.0      -0.0      -0.0	0.0	0.0	0.0 F F F
 Si             2.71512205      10.86238964       8.14248354      -0.0       0.0      -0.0      -0.0	0.0	0.0	0.0 F F F
 Si             4.07349932      12.21741940       9.50233792       0.0       0.0       0.0       0.0	0.0	0.0	0.0 F F F
 Si             2.71700703      13.57104206       5.43177952       0.0      -0.0       0.0      -0.0	0.0	0.0	0.0 F F F
 Si             4.07522404      14.93116546       6.78820605       0.0      -0.0       0.0       0.0	0.0	0.0	0.0 F F F
 Si            16.28879243      10.86048902      10.85895270      -0.0       0.0      -0.0       0.0	0.0	0.0	0.0 F F F
 Si             1.35793295      12.21960221      12.21745670      -0.0       0.0      -0.0       0.0	0.0	0.0	0.0 F F F
 Si            16.28872935      13.57311767      13.57682290      -0.0      -0.0       0.0      -0.0	0.0	0.0	0.0 F F F
 Si             1.35822973      14.93523963      14.92909970      -0.0       0.0      -0.0      -0.0	0.0	0.0	0.0 F F F
 Si             2.71650990      10.85751567      13.57189711       0.0      -0.0      -0.0       0.0	0.0	0.0	0.0 F F F
 Si             4.07472142      12.21873161      14.93358261       0.0      -0.0      -0.0       0.0	0.0	0.0	0.0 F F F
 Si             2.71506117      13.57538964      10.86188563       0.0       0.0       0.0      -0.0	0.0	0.0	0.0 F F F
 Si             4.06963764      14.93315668      12.21865587      -0.0       0.0       0.0      -0.0	0.0	0.0	0.0 F F F
 Si             5.42959548      16.28846701       0.00158503      -0.0      -0.0       0.0      -0.0	0.0	0.0	0.0 F F F
 Si             6.79079410       1.35777871       1.35698136       0.0       0.0       0.0       0.0	0.0	0.0	0.0 F F F
 Si             5.42944666       2.71340266       2.71619850       0.0      -0.0       0.0      -0.0	0.0	0.0	0.0 F F F
 Si             6.78736830       4.07319733       4.07128577       0.0       0.0      -0.0       0.0	0.0	0.0	0.0 F F F
 Si             8.14428833       0.00183259       2.71368009      -0.0       0.0      -0.0      -0.0	0.0	0.0	0.0 F F F
 Si             9.50182399       1.35748623       4.07218905       0.0       0.0       0.0       0.0	0.0	0.0	0.0 F F F
 Si             8.14344379       2.71349606       0.00214126      -0.0      -0.0       0.0      -0.0	0.0	0.0	0.0 F F F
 Si             9.49982127       4.07272726       1.35859005      -0.0      -0.0       0.0       0.0	0.0	0.0	0.0 F F F
 Si             5.43120086       0.00259133       5.43130458      -0.0       0.0      -0.0       0.0	0.0	0.0	0.0 F F F
 Si             6.78483715       1.35492642       6.78603783      -0.0      -0.0      -0.0      -0.0	0.0	0.0	0.0 F F F
 Si             5.43028118       2.71560744       8.14614558      -0.0       0.0       0.0       0.0	0.0	0.0	0.0 F F F
 Si             6.78578455       4.07204527       9.50289000      -0.0       0.0       0.0       0.0	0.0	0.0	0.0 F F F
 Si             8.14471459      16.28938557       8.14418208      -0.0       0.0       0.0      -0.0	0.0	0.0	0.0 F F F
 Si             9.50171603       1.35912713       9.50449478      -0.0       0.0       0.0      -0.0	0.0	0.0	0.0 F F F
 Si             8.14819883       2.71598745       5.43167559       0.0       0.0       0.0       0.0	0.0	0.0	0.0 F F F
 Si             9.50200430       4.07031947       6.78452399       0.0      -0.0      -0.0      -0.0	0.0	0.0	0.0 F F F
 Si             5.43055202       0.00020265      10.85964446      -0.0       0.0      -0.0       0.0	0.0	0.0	0.0 F F F
 Si             6.78608817       1.35677900      12.21919384      -0.0      -0.0       0.0      -0.0	0.0	0.0	0.0 F F F
 Si             5.43194013       2.71566149      13.57363824       0.0      -0.0      -0.0      -0.0	0.0	0.0	0.0 F F F
 Si             6.78735410       4.07192195      14.93260603       0.0      -0.0       0.0       0.0	0.0	0.0	0.0 F F F
 Si             8.14572440      16.28850632      13.57245759      -0.0      -0.0      -0.0      -0.0	0.0	0.0	0.0 F F F
 Si             9.50153100       1.35956158      14.93213271      -0.0       0.0      -0.0      -0.0	0.0	0.0	0.0 F F F
 Si             8.14648941       2.71447322      10.85720357       0.0      -0.0      -0.0      -0.0	0.0	0.0	0.0 F F F
 Si             9.50282620       4.07464392      12.21627890       0.0       0.0      -0.0      -0.0	0.0	0.0	0.0 F F F
 Si             5.43428592       5.43385628       0.00006170       0.0       0.0      -0.0      -0.0	0.0	0.0	0.0 F F F
 Si             6.78354490       6.78806970       1.35555316      -0.0      -0.0      -0.0      -0.0	0.0	0.0	0.0 F F F
 Si             5.43121792       8.14413792       2.71456887       0.0       0.0      -0.0      -0.0	0.0	0.0	0.0 F F F
 Si             6.78651828       9.50437533       4.06983930      -0.0       0.0      -0.0      -0.0	0.0	0.0	0.0 F F F
 Si             8.14707153       5.42772630       2.71500508       0.0      -0.0      -0.0      -0.0	0.0	0.0	0.0 F F F
 Si             9.50217957       6.79007705       4.06994997       0.0       0.0      -0.0      -0.0	0.0	0.0	0.0 F F F
 Si             8.14344530       8.14624059       0.00016920      -0.0       0.0      -0.0       0.0	0.0	0.0	0.0 F F F
 Si             9.50176950       9.50358957       1.35608881      -0.0       0.0       0.0      -0.0	0.0	0.0	0.0 F F F
 Si             5.42849990       5.43131651       5.42902508      -0.0       0.0      -0.0      -0.0	0.0	0.0	0.0 F F F
 Si             6.78780197       6.78970735       6.78845970       0.0       0.0       0.0       0.0	0.0	0.0	0.0 F F F
 Si             5.43211061       8.14569609       8.14340554       0.0       0.0      -0.0       0.0	0.0	0.0	0.0 F F F
 Si             6.78726891       9.50254951       9.50168223      -0.0      -0.0      -0.0       0.0	0.0	0.0	0.0 F F F
 Si             8.14462226       5.43206409       8.14590901      -0.0       0.0       0.0      -0.0	0.0	0.0	0.0 F F F
 Si             9.50176527       6.78500346       9.50246937      -0.0      -0.0      -0.0      -0.0	0.0	0.0	0.0 F F F
 Si             8.14459720       8.14196934       5.43166265      -0.0      -0.0       0.0       0.0	0.0	0.0	0.0 F F F
 Si             9.50508237       9.50209763       6.78611145       0.0       0.0      -0.0       0.0	0.0	0.0	0.0 F F F
 Si             5.42985711       5.42939549      10.85777621      -0.0      -0.0      -0.0      -0.0	0.0	0.0	0.0 F F F
 Si             6.78747728       6.78852936      12.21985249       0.0       0.0       0.0      -0.0	0.0	0.0	0.0 F F F
 Si             5.43209961       8.14255348      13.57488402       0.0      -0.0       0.0       0.0	0.0	0.0	0.0 F F F
 Si             6.79131073       9.50239225      14.93040420       0.0      -0.0      -0.0       0.0	0.0	0.0	0.0 F F F
 Si             8.14499737       5.43101230      13.57466367      -0.0       0.0      -0.0      -0.0	0.0	0.0	0.0 F F F
 Si             9.50206152       6.78662685      14.93105450       0.0      -0.0      -0.0       0.0	0.0	0.0	0.0 F F F
 Si             8.14371729       8.14604903      10.86006944      -0.0       0.0       0.0       0.0	0.0	0.0	0.0 F F F
 Si             9.50502010       9.50363514      12.21652307       0.0      -0.0       0.0       0.0	0.0	0.0	0.0 F F F
 Si             5.42705810      10.86050338       0.00028877      -0.0       0.0      -0.0       0.0	0.0	0.0	0.0 F F F
 Si             6.78945736      12.21907319       1.35884262       0.0       0.0       0.0       0.0	0.0	0.0	0.0 F F F
 Si             5.43046526      13.57659663       2.71410093       0.0       0.0       0.0       0.0	0.0	0.0	0.0 F F F
 Si             6.78564447      14.93262566       4.07100697      -0.0      -0.0      -0.0      -0.0	0.0	0.0	0.0 F F F
 Si             8.14268238      10.85952538       2.71487112      -0.0      -0.0      -0.0       0.0	0.0	0.0	0.0 F F F
 Si             9.50441844      12.21848038       4.07257458       0.0       0.0       0.0      -0.0	0.0	0.0	0.0 F F F
 Si             8.14330157      13.57262703       0.00023845       0.0      -0.0       0.0      -0.0	0.0	0.0	0.0 F F F
 Si             9.50306698      14.93430176       1.35843109       0.0       0.0      -0.0      -0.0	0.0	0.0	0.0 F F F
 Si             5.43000444      10.86055707       5.43053780      -0.0      -0.0      -0.0       0.0	0.0	0.0	0.0 F F F
 Si             6.78659524      12.21471662       6.78886639      -0.0      -0.0       0.0      -0.0	0.0	0.0	0.0 F F F
 Si             5.42932536      13.57671179       8.14482580      -0.0       0.0       0.0      -0.0	0.0	0.0	0.0 F F F
 Si             6.78671064      14.93124142       9.50240384      -0.0      -0.0      -0.0       0.0	0.0	0.0	0.0 F F F
 Si             8.14256973      10.86238607       8.14729549      -0.0       0.0       0.0       0.0	0.0	0.0	0.0 F F F
 Si             9.50268279      12.21605815       9.50063059      -0.0      -0.0      -0.0       0.0	0.0	0.0	0.0 F F F
 Si             8.14727712      13.57557220       5.42971244       0.0      -0.0      -0.0      -0.0	0.0	0.0	0.0 F F F
 Si             9.50155762      14.93142824       6.78837618       0.0      -0.0      -0.0       0.0	0.0	0.0	0.0 F F F
 Si             5.42949922      10.85898113      10.85993080       0.0      -0.0      -0.0      -0.0	0.0	0.0	0.0 F F F
 Si             6.78721960      12.21678917      12.21914225       0.0      -0.0       0.0       0.0	0.0	0.0	0.0 F F F
 Si             5.43026620      13.57460096      13.57571709       0.0      -0.0       0.0       0.0	0.0	0.0	0.0 F F F
 Si             6.78628837      14.93236497      14.93213134      -0.0       0.0      -0.0       0.0	0.0	0.0	0.0 F F F
 Si             8.14276939      10.85890986      13.57610086      -0.0      -0.0       0.0      -0.0	0.0	0.0	0.0 F F F
 Si             9.50246270      12.21875289      14.93122505       0.0       0.0      -0.0       0.0	0.0	0.0	0.0 F F F
 Si             8.14482943      13.57731331      10.86027479       0.0       0.0      -0.0      -0.0	0.0	0.0	0.0 F F F
 Si             9.50055600      14.93426173      12.21752829      -0.0       0.0       0.0      -0.0	0.0	0.0	0.0 F F F
 Si            10.86160389      16.28879882       0.00145768       0.0      -0.0       0.0       0.0	0.0	0.0	0.0 F F F
 Si            12.21725718       1.35695159       1.35732781      -0.0      -0.0      -0.0       0.0	0.0	0.0	0.0 F F F
 Si            10.85986560       2.71411393       2.71511090      -0.0      -0.0      -0.0      -0.0	0.0	0.0	0.0 F F F
 Si            12.21914266       4.07406676       4.07185291       0.0       0.0      -0.0      -0.0	0.0	0.0	0.0 F F F
 Si            13.57536906       0.00055027       2.71458221       0.0       0.0      -0.0      -0.0	0.0	0.0	0.0 F F F
 Si            14.93144909       1.35893319       4.07385738      -0.0       0.0       0.0       0.0	0.0	0.0	0.0 F F F
 Si            13.57307373       2.71584951      16.28964755      -0.0       0.0      -0.0      -0.0	0.0	0.0	0.0 F F F
 Si            14.93586306       4.07415966       1.35618381       0.0       0.0      -0.0       0.0	0.0	0.0	0.0 F F F
 Si            10.86054301       0.00060535       5.42917856      -0.0       0.0      -0.0      -0.0	0.0	0.0	0.0 F F F
 Si            12.21920434       1.35770936       6.78715086       0.0       0.0      -0.0       0.0	0.0	0.0	0.0 F F F
 Si            10.86014329       2.71539962       8.14507459       0.0      -0.0      -0.0       0.0	0.0	0.0	0.0 F F F
 Si            12.21769002       4.07213367       9.50224638       0.0       0.0       0.0       0.0	0.0	0.0	0.0 F F F
 Si            13.57512016       0.00033497       8.14297056       0.0      -0.0      -0.0      -0.0	0.0	0.0	0.0 F F F
 Si            14.93249154       1.35796779       9.50378247       0.0       0.0       0.0       0.0	0.0	0.0	0.0 F F F
 Si            13.57625048       2.71369768       5.43007571       0.0      -0.0       0.0       0.0	0.0	0.0	0.0 F F F
 Si            14.93117256       4.07152729       6.78681688      -0.0      -0.0      -0.0      -0.0	0.0	0.0	0.0 F F F
 Si            10.86059556      16.28879737      10.85941458       0.0      -0.0      -0.0       0.0	0.0	0.0	0.0 F F F
 Si            12.21824630       1.36031651      12.21605533      -0.0       0.0      -0.0       0.0	0.0	0.0	0.0 F F F
 Si            10.86028988       2.71239383      13.57385623       0.0      -0.0       0.0      -0.0	0.0	0.0	0.0 F F F
 Si            12.21942567       4.07464184      14.93403751       0.0       0.0       0.0      -0.0	0.0	0.0	0.0 F F F
 Si            13.57591336       0.00133563      13.57719671       0.0       0.0       0.0       0.0	0.0	0.0	0.0 F F F
 Si            14.93264012       1.35521803      14.93022817      -0.0      -0.0      -0.0       0.0	0.0	0.0	0.0 F F F
 Si            13.57326947       2.71252843      10.86065970      -0.0      -0.0      -0.0      -0.0	0.0	0.0	0.0 F F F
 Si            14.93556858       4.07057507      12.21902083       0.0      -0.0       0.0       0.0	0.0	0.0	0.0 F F F
 Si            10.86325198       5.43124055       0.00066236       0.0       0.0       0.0      -0.0	0.0	0.0	0.0 F F F
 Si            12.21434170       6.79067973       1.35393107      -0.0       0.0      -0.0       0.0	0.0	0.0	0.0 F F F
 Si            10.86137172       8.14183243       2.71615615      -0.0      -0.0       0.0       0.0	0.0	0.0	0.0 F F F
 Si            12.21636173       9.50375315       4.07207717       0.0      -0.0      -0.0      -0.0	0.0	0.0	0.0 F F F
 Si            13.57516117       5.42752121       2.71880539       0.0      -0.0       0.0      -0.0	0.0	0.0	0.0 F F F
 Si            14.93300298       6.78731615       4.07332171       0.0      -0.0       0.0      -0.0	0.0	0.0	0.0 F F F
 Si            13.57311275       8.14363112       0.00109914      -0.0      -0.0       0.0      -0.0	0.0	0.0	0.0 F F F
 Si            14.93231243       9.50446490       1.35832445      -0.0       0.0       0.0       0.0	0.0	0.0	0.0 F F F
 Si            10.86315173       5.43032541       5.43374517       0.0      -0.0       0.0      -0.0	0.0	0.0	0.0 F F F
 Si            12.21760772       6.78475529       6.78532200       0.0      -0.0      -0.0      -0.0	0.0	0.0	0.0 F F F
 Si            10.86169700       8.14729629       8.14551740       0.0       0.0       0.0       0.0	0.0	0.0	0.0 F F F
 Si            12.21704458       9.49967425       9.50232671      -0.0      -0.0       0.0      -0.0	0.0	0.0	0.0 F F F
 Si            13.57364032       5.43066630       8.14381164      -0.0       0.0      -0.0       0.0	0.0	0.0	0.0 F F F
 Si            14.93246519       6.78779663       9.50271829       0.0       0.0       0.0       0.0	0.0	0.0	0.0 F F F
 Si            13.57575745       8.14408012       5.43152580      -0.0      -0.0       0.0       0.0	0.0	0.0	0.0 F F F
 Si            14.93380074       9.50083250       6.78606818       0.0       0.0      -0.0      -0.0	0.0	0.0	0.0 F F F
 Si            10.85966783       5.43041578      10.86171000       0.0       0.0       0.0       0.0	0.0	0.0	0.0 F F F
 Si            12.21558282       6.78641891      12.21799600      -0.0      -0.0       0.0       0.0	0.0	0.0	0.0 F F F
 Si            10.85951432       8.14451419      13.57314657      -0.0       0.0      -0.0      -0.0	0.0	0.0	0.0 F F F
 Si            12.21798405       9.50226341      14.93365617       0.0       0.0      -0.0       0.0	0.0	0.0	0.0 F F F
 Si            13.57461351       5.43108574      13.57695477      -0.0       0.0      -0.0      -0.0	0.0	0.0	0.0 F F F
 Si            14.93100720       6.78551582      14.93250491      -0.0      -0.0       0.0       0.0	0.0	0.0	0.0 F F F
 Si            13.57685257       8.14837620      10.86081854       0.0       0.0       0.0      -0.0	0.0	0.0	0.0 F F F
 Si            14.93017275       9.50034838      12.21591593      -0.0      -0.0      -0.0       0.0	0.0	0.0	0.0 F F F
 Si            10.86011741      10.85900730       0.00075088      -0.0      -0.0       0.0       0.0	0.0	0.0	0.0 F F F
 Si            12.21873743      12.21799291       1.35634286       0.0       0.0      -0.0      -0.0	0.0	0.0	0.0 F F F
 Si            10.85847124      13.57380743       2.71683131      -0.0      -0.0       0.0       0.0	0.0	0.0	0.0 F F F
 Si            12.21810328      14.93145511       4.07386936       0.0      -0.0       0.0      -0.0	0.0	0.0	0.0 F F F
 Si            13.57559725      10.85768384       2.71392056       0.0      -0.0      -0.0       0.0	0.0	0.0	0.0 F F F
 Si            14.93368300      12.21748029       4.07179958       0.0      -0.0       0.0       0.0	0.0	0.0	0.0 F F F
 Si            13.57471176      13.57546946       0.00158621      -0.0      -0.0       0.0       0.0	0.0	0.0	0.0 F F F
 Si            14.93055035      14.93086441       1.35782207      -0.0      -0.0       0.0      -0.0	0.0	0.0	0.0 F F F
 Si            10.86006485      10.85977645       5.42931765       0.0       0.0       0.0       0.0	0.0	0.0	0.0 F F F
 Si            12.21828621      12.21531621       6.78825963      -0.0      -0.0      -0.0      -0.0	0.0	0.0	0.0 F F F
 Si            10.86006045      13.57621209       8.14616761      -0.0       0.0       0.0      -0.0	0.0	0.0	0.0 F F F
 Si            12.21614495      14.93104346       9.50424764      -0.0      -0.0       0.0       0.0	0.0	0.0	0.0 F F F
 Si            13.57238981      10.86128624       8.14281232      -0.0       0.0      -0.0       0.0	0.0	0.0	0.0 F F F
 Si            14.93216601      12.21926570       9.50642224       0.0       0.0       0.0      -0.0	0.0	0.0	0.0 F F F
 Si            13.57385392      13.57707546       5.42978470      -0.0       0.0       0.0       0.0	0.0	0.0	0.0 F F F
 Si            14.93212398      14.93186816       6.78906912      -0.0      -0.0       0.0       0.0	0.0	0.0	0.0 F F F
 Si            10.85830515      10.85936520      10.86253424      -0.0       0.0       0.0       0.0	0.0	0.0	0.0 F F F
 Si            12.21660491      12.21774029      12.21625202      -0.0       0.0      -0.0       0.0	0.0	0.0	0.0 F F F
 Si            10.86188934      13.57594550      13.57822781       0.0       0.0       0.0      -0.0	0.0	0.0	0.0 F F F
 Si            12.21539200      14.93070362      14.93058910      -0.0      -0.0      -0.0       0.0	0.0	0.0	0.0 F F F
 Si            13.57521894      10.85850532      13.57368788      -0.0      -0.0      -0.0      -0.0	0.0	0.0	0.0 F F F
 Si            14.93601741      12.21995070      14.93174992       0.0       0.0      -0.0      -0.0	0.0	0.0	0.0 F F F
 Si            13.57664921      13.57547213      10.85896135      -0.0       0.0      -0.0      -0.0	0.0	0.0	0.0 F F F
 Si            14.93149127      14.93049171      12.21598838      -0.0      -0.0      -0.0      -0.0	0.0	0.0	0.0 F F F
