     216
 Properties=species:S:1:pos:R:3:velocities:R:3:forces:R:3:local_energy:R:1:fix_atoms:S:3 Lattice="16.2900000000       0.0000000000    0.0000000000    0.0000000000   16.2900000000    0.0000000000    0.0000000000    0.0000000000   16.2900000000" temperature=0.00000000 pressure=14261.51230172 time_step=0.1000 time=0.000000 energy=-35245.910469 virial="38.47847328           0.23428932     -0.28380235      0.23428932     38.47776109      0.12766304     -0.28380235      0.12766304     38.47934802" stress="-0.00890132          -0.00005420      0.00006565     -0.00005420     -0.00890116     -0.00002953      0.00006565     -0.00002953     -0.00890153" volume=4322.781189 step=0
 Si             0.00189298       0.00202485      16.28817403       0.00000000       0.00000000      -0.00000000      -0.02762064      -0.03302637       0.03271077    -163.18177052 F F F
 Si             1.35450762       1.35954886       1.36061011      -0.00000000       0.00000000       0.00000000       0.06383197      -0.04831588      -0.05553113    -163.16994718 F F F
 Si             0.00243532       2.71228983       2.71225113       0.00000000       0.00000000       0.00000000      -0.05250530       0.05294438       0.05877150    -163.17049717 F F F
 Si             1.35864758       4.07132864       4.07197458       0.00000000      -0.00000000      -0.00000000      -0.02363373       0.02278594      -0.00566791    -163.18158790 F F F
 Si             2.71381837      16.28777216       2.71617498      -0.00000000      -0.00000000       0.00000000       0.03743372       0.06317906      -0.03392376    -163.17275003 F F F
 Si             4.07347509       1.35803664       4.07277754       0.00000000      -0.00000000       0.00000000      -0.02058208      -0.02577297      -0.00009876    -163.17435297 F F F
 Si             2.71254475       2.71492679      16.28802593      -0.00000000      -0.00000000      -0.00000000       0.02878375      -0.00270889       0.04711712    -163.17766703 F F F
 Si             4.06969446       4.07334105       1.36165380      -0.00000000      -0.00000000       0.00000000       0.06004588      -0.01531453      -0.08920689    -163.18352656 F F F
 Si             0.00005689       0.00007423       5.42859652       0.00000000       0.00000000      -0.00000000      -0.01164088       0.00896257       0.02763667    -163.17799498 F F F
 Si             1.35507690       1.35968800       6.78909427      -0.00000000       0.00000000       0.00000000       0.05395984      -0.05271509      -0.03593036    -163.17586587 F F F
 Si             0.00057691       2.71238350       8.14253058      -0.00000000      -0.00000000      -0.00000000      -0.02206562       0.06345661       0.05940845    -163.17305948 F F F
 Si             1.35915815       4.07332278       9.50368333       0.00000000       0.00000000       0.00000000      -0.03262492      -0.01092740      -0.02810814    -163.18252917 F F F
 Si             2.71320974      16.28804842       8.14868030      -0.00000000      -0.00000000       0.00000000       0.04218122       0.04129965      -0.07253714    -163.17667589 F F F
 Si             4.07274687       1.35828985       9.50228655       0.00000000       0.00000000      -0.00000000      -0.00451716      -0.01284006       0.00528234    -163.17487319 F F F
 Si             2.71557481       2.71505403       5.42831644      -0.00000000       0.00000000      -0.00000000      -0.00270336      -0.00014012       0.03739018    -163.17667171 F F F
 Si             4.07141642       4.07367291       6.78927208      -0.00000000       0.00000000       0.00000000       0.02301579      -0.02345688      -0.03724853    -163.17479939 F F F
 Si             0.00254229       0.00252722      10.86150232       0.00000000       0.00000000       0.00000000      -0.04907613      -0.05843977      -0.03544878    -163.17209598 F F F
 Si             1.35513302       1.35490807      12.21595484      -0.00000000      -0.00000000      -0.00000000       0.04855741       0.04896382       0.04372063    -163.17747311 F F F
 Si            16.28798681       2.71671715      13.57325445       0.00000000       0.00000000      -0.00000000       0.05029669      -0.04137289       0.03260969    -163.17490934 F F F
 Si             1.35974258       4.07293717      14.93187021       0.00000000      -0.00000000       0.00000000      -0.06893617      -0.01390416       0.01455599    -163.17105630 F F F
 Si             2.71450488      16.28645375      13.57517089       0.00000000      -0.00000000      -0.00000000       0.00180434       0.07104027      -0.01728524    -163.16680011 F F F
 Si             4.07158633       1.35652042      14.93288146      -0.00000000       0.00000000       0.00000000       0.01484735       0.00507714      -0.01208446    -163.18350145 F F F
 Si             2.71487003       2.71486405      10.85931976      -0.00000000      -0.00000000       0.00000000      -0.00092895      -0.01448763       0.01892040    -163.17483194 F F F
 Si             4.07309492       4.07164605      12.21688828       0.00000000      -0.00000000      -0.00000000      -0.01609005       0.01675122       0.01001143    -163.17952383 F F F
 Si            16.28812438       5.42862521       0.00179793      -0.00000000      -0.00000000       0.00000000       0.05078484       0.03023443      -0.04144521    -163.17417668 F F F
 Si             1.36019849       6.78775260       1.35583905       0.00000000      -0.00000000      -0.00000000      -0.06244402      -0.01102470       0.03623921    -163.17514355 F F F
 Si             0.00038259       8.14655748       2.71655620      -0.00000000       0.00000000       0.00000000       0.00135888      -0.03096567      -0.03360761    -163.18131236 F F F
 Si             1.35679565       9.50163716       4.07286080      -0.00000000       0.00000000       0.00000000       0.01380560       0.01447317      -0.00202678    -163.16681892 F F F
 Si             2.71554855       5.42927249       2.71275875      -0.00000000       0.00000000      -0.00000000      -0.01514463       0.02451445       0.04995333    -163.16769135 F F F
 Si             4.07480877       6.78603616       4.07239633       0.00000000      -0.00000000       0.00000000      -0.05488442       0.03651722      -0.00424633    -163.17956036 F F F
 Si             2.71262324       8.14316815       0.00131072      -0.00000000      -0.00000000       0.00000000       0.05316214       0.03224782      -0.02101665    -163.17022965 F F F
 Si             4.07326911       9.50309322       1.35773503      -0.00000000      -0.00000000       0.00000000      -0.02230416      -0.02794861      -0.00028892    -163.17599304 F F F
 Si            16.28879368       5.43187371       5.42962729      -0.00000000       0.00000000      -0.00000000       0.02681092      -0.03485583       0.00951133    -163.17927477 F F F
 Si             1.35817723       6.78821132       6.78840519       0.00000000       0.00000000       0.00000000      -0.01249459      -0.01083656      -0.01568215    -163.17255045 F F F
 Si             0.00150162       8.14585075       8.14429133       0.00000000      -0.00000000      -0.00000000      -0.02622555      -0.02526697       0.00974187    -163.17008769 F F F
 Si             1.35570154       9.49966365       9.50295754      -0.00000000      -0.00000000       0.00000000       0.03867389       0.05569430      -0.01805091    -163.17890953 F F F
 Si             2.71500868       5.42894980       8.14252593       0.00000000      -0.00000000      -0.00000000       0.00161682       0.03230402       0.05233679    -163.17272326 F F F
 Si             4.07176321       6.78821530       9.50536547      -0.00000000      -0.00000000       0.00000000       0.02176887      -0.01205167      -0.07429721    -163.17850560 F F F
 Si             2.71295158       8.14649510       5.43106756      -0.00000000      -0.00000000       0.00000000       0.04037401      -0.03240332      -0.02336125    -163.17878587 F F F
 Si             4.07342280       9.50159411       6.78717855       0.00000000       0.00000000       0.00000000      -0.01234079       0.01842645      -0.00037120    -163.17507133 F F F
 Si             0.00196091       5.43192599      10.86278913       0.00000000       0.00000000       0.00000000      -0.04312599      -0.04486865      -0.05452044    -163.16821567 F F F
 Si             1.35531845       6.78523270      12.21480961      -0.00000000      -0.00000000      -0.00000000       0.04968625       0.04705845       0.05595508    -163.17351216 F F F
 Si             0.00002676       8.14605371      13.57425415      -0.00000000       0.00000000      -0.00000000      -0.01247430      -0.03262699       0.00317475    -163.18099976 F F F
 Si             1.35784927       9.50082901      14.93293116      -0.00000000      -0.00000000       0.00000000      -0.00811908       0.02966520      -0.00212671    -163.17863059 F F F
 Si             2.71255886       5.42860486      13.57738966      -0.00000000      -0.00000000       0.00000000       0.04293327       0.02556211      -0.05009296    -163.17663946 F F F
 Si             4.07265301       6.78808311      14.93240649       0.00000000       0.00000000       0.00000000      -0.00613755      -0.00797998       0.00616263    -163.17793405 F F F
 Si             2.71625590       8.14410367      10.85866057      -0.00000000      -0.00000000      -0.00000000      -0.02976872       0.01271349       0.03466327    -163.17269244 F F F
 Si             4.07040441       9.50554958      12.21711615      -0.00000000       0.00000000      -0.00000000       0.05082481      -0.07470554      -0.00441256    -163.17264550 F F F
 Si            16.28845167      10.86046629       0.00151798      -0.00000000       0.00000000       0.00000000       0.02475093      -0.00862356      -0.03079950    -163.17396462 F F F
 Si             1.35596648      12.21721361       1.35758324      -0.00000000       0.00000000      -0.00000000       0.03085942      -0.00138196       0.00048031    -163.17477724 F F F
 Si            16.28904569      13.57390871       2.71409203      -0.00000000       0.00000000      -0.00000000       0.01831602       0.02946781       0.01320772    -163.17328761 F F F
 Si             1.35805394      14.93783355       4.06933972       0.00000000       0.00000000      -0.00000000      -0.00379712      -0.11103289       0.06109759    -163.17729829 F F F
 Si             2.71517980      10.85870986       2.71552943       0.00000000      -0.00000000       0.00000000      -0.00619420       0.01767522       0.00091510    -163.17958567 F F F
 Si             4.07228831      12.21780931       4.07388079      -0.00000000      -0.00000000       0.00000000       0.01633108      -0.00945041      -0.03153288    -163.17459680 F F F
 Si             2.71641710      13.57456098       0.00006473      -0.00000000       0.00000000       0.00000000      -0.02619130       0.02314118      -0.00347700    -163.18409122 F F F
 Si             4.07419298      14.93353395       1.35843013       0.00000000       0.00000000      -0.00000000      -0.03331703      -0.01825316      -0.00623934    -163.17082362 F F F
 Si            16.28952784      10.85759916       5.42903525      -0.00000000      -0.00000000      -0.00000000       0.02033704       0.04309244       0.02005771    -163.17912704 F F F
 Si             1.35918769      12.21864135       6.78944925       0.00000000       0.00000000       0.00000000      -0.04216607      -0.02903990      -0.04364753    -163.16842604 F F F
 Si             0.00101275      13.57563212       8.14338574       0.00000000       0.00000000       0.00000000      -0.01478428      -0.00646462       0.04202890    -163.17661158 F F F
 Si             1.35866567      14.93470980       9.50035805       0.00000000       0.00000000      -0.00000000      -0.02842521      -0.04138690       0.05434848    -163.17304053 F F F
 Si             2.71512205      10.86238964       8.14248354      -0.00000000       0.00000000      -0.00000000       0.00196145      -0.05200904       0.05227942    -163.17949919 F F F
 Si             4.07349932      12.21741940       9.50233792       0.00000000       0.00000000       0.00000000      -0.01574202       0.01082151       0.00677076    -163.17890032 F F F
 Si             2.71700703      13.57104206       5.43177952       0.00000000      -0.00000000       0.00000000      -0.03645571       0.08511478      -0.03414957    -163.18016898 F F F
 Si             4.07522404      14.93116546       6.78820605       0.00000000      -0.00000000       0.00000000      -0.04513272       0.03412414      -0.00848565    -163.17895636 F F F
 Si            16.28879243      10.86048902      10.85895270      -0.00000000       0.00000000      -0.00000000       0.01697975      -0.01343629       0.02940663    -163.17847044 F F F
 Si             1.35793295      12.21960221      12.21745670      -0.00000000       0.00000000      -0.00000000      -0.01518170      -0.04002805       0.00521516    -163.17711613 F F F
 Si            16.28872935      13.57311767      13.57682290      -0.00000000      -0.00000000       0.00000000       0.02981847       0.04836958      -0.03958080    -163.16923536 F F F
 Si             1.35822973      14.93523963      14.92909970      -0.00000000       0.00000000      -0.00000000      -0.01044241      -0.05688577       0.05468500    -163.17391822 F F F
 Si             2.71650990      10.85751567      13.57189711       0.00000000      -0.00000000      -0.00000000      -0.02723078       0.05651071       0.06296391    -163.17669973 F F F
 Si             4.07472142      12.21873161      14.93358261       0.00000000      -0.00000000      -0.00000000      -0.04129276      -0.02634447      -0.03129678    -163.17217735 F F F
 Si             2.71506117      13.57538964      10.86188563       0.00000000       0.00000000       0.00000000      -0.00369719       0.00526489      -0.04276635    -163.17651353 F F F
 Si             4.06963764      14.93315668      12.21865587      -0.00000000       0.00000000       0.00000000       0.05355603      -0.01537723      -0.01665656    -163.17506204 F F F
 Si             5.42959548      16.28846701       0.00158503      -0.00000000      -0.00000000       0.00000000       0.01717697       0.03383537      -0.01644117    -163.17574295 F F F
 Si             6.79079410       1.35777871       1.35698136       0.00000000       0.00000000       0.00000000      -0.06733620      -0.00909677       0.00959257    -163.17085806 F F F
 Si             5.42944666       2.71340266       2.71619850       0.00000000      -0.00000000       0.00000000       0.01773963       0.01558571      -0.02428108    -163.17572301 F F F
 Si             6.78736830       4.07319733       4.07128577       0.00000000       0.00000000      -0.00000000       0.00691925      -0.01635509       0.03160329    -163.17989064 F F F
 Si             8.14428833       0.00183259       2.71368009      -0.00000000       0.00000000      -0.00000000       0.00810150      -0.02547518       0.02562503    -163.17216081 F F F
 Si             9.50182399       1.35748623       4.07218905       0.00000000       0.00000000       0.00000000       0.00979551       0.00027328       0.00471452    -163.17355107 F F F
 Si             8.14344379       2.71349606       0.00214126      -0.00000000      -0.00000000       0.00000000       0.02202236       0.03465691      -0.03736701    -163.16861780 F F F
 Si             9.49982127       4.07272726       1.35859005      -0.00000000      -0.00000000       0.00000000       0.05807564      -0.01020320      -0.02904763    -163.17667106 F F F
 Si             5.43120086       0.00259133       5.43130458      -0.00000000       0.00000000      -0.00000000      -0.02996116      -0.04903521      -0.03202566    -163.16864444 F F F
 Si             6.78483715       1.35492642       6.78603783      -0.00000000      -0.00000000      -0.00000000       0.05426379       0.05764116       0.03130190    -163.17465531 F F F
 Si             5.43028118       2.71560744       8.14614558      -0.00000000       0.00000000       0.00000000      -0.00892271      -0.01203698      -0.02792256    -163.17543927 F F F
 Si             6.78578455       4.07204527       9.50289000      -0.00000000       0.00000000       0.00000000       0.03471278       0.00818700      -0.01469991    -163.17152763 F F F
 Si             8.14471459      16.28938557       8.14418208      -0.00000000       0.00000000       0.00000000      -0.00611298       0.01240499       0.02044367    -163.18060238 F F F
 Si             9.50171603       1.35912713       9.50449478      -0.00000000       0.00000000       0.00000000       0.02277039      -0.04002139      -0.04661784    -163.17300608 F F F
 Si             8.14819883       2.71598745       5.43167559       0.00000000       0.00000000       0.00000000      -0.07134933      -0.03008343      -0.03590078    -163.17496439 F F F
 Si             9.50200430       4.07031947       6.78452399       0.00000000      -0.00000000      -0.00000000       0.01668335       0.05013649       0.06488018    -163.17181511 F F F
 Si             5.43055202       0.00020265      10.85964446      -0.00000000       0.00000000      -0.00000000      -0.02184197      -0.00680122       0.01152326    -163.17960607 F F F
 Si             6.78608817       1.35677900      12.21919384      -0.00000000      -0.00000000       0.00000000       0.03805897       0.01065677      -0.04068928    -163.17573956 F F F
 Si             5.43194013       2.71566149      13.57363824       0.00000000      -0.00000000      -0.00000000      -0.03820081      -0.01367668       0.02925071    -163.17143057 F F F
 Si             6.78735410       4.07192195      14.93260603       0.00000000      -0.00000000       0.00000000       0.01486925       0.01154120       0.00475217    -163.17768518 F F F
 Si             8.14572440      16.28850632      13.57245759      -0.00000000      -0.00000000      -0.00000000      -0.02095251       0.02854021       0.05096868    -163.17226476 F F F
 Si             9.50153100       1.35956158      14.93213271      -0.00000000       0.00000000      -0.00000000       0.01079581      -0.04699070       0.01458654    -163.18139252 F F F
 Si             8.14648941       2.71447322      10.85720357       0.00000000      -0.00000000      -0.00000000      -0.03935961       0.01672666       0.05896726    -163.17694359 F F F
 Si             9.50282620       4.07464392      12.21627890       0.00000000       0.00000000      -0.00000000      -0.00852040      -0.03857855       0.01737660    -163.17787126 F F F
 Si             5.43428592       5.43385628       0.00006170       0.00000000       0.00000000      -0.00000000      -0.09097332      -0.07550490      -0.00042196    -163.17553184 F F F
 Si             6.78354490       6.78806970       1.35555316      -0.00000000      -0.00000000      -0.00000000       0.08995230      -0.00069632       0.04434980    -163.17105398 F F F
 Si             5.43121792       8.14413792       2.71456887       0.00000000       0.00000000      -0.00000000      -0.02481173       0.01555193       0.00375799    -163.17163010 F F F
 Si             6.78651828       9.50437533       4.06983930      -0.00000000       0.00000000      -0.00000000       0.01463619      -0.03946675       0.05395026    -163.17809172 F F F
 Si             8.14707153       5.42772630       2.71500508       0.00000000      -0.00000000      -0.00000000      -0.05048292       0.05700191      -0.01377543    -163.17516152 F F F
 Si             9.50217957       6.79007705       4.06994997       0.00000000       0.00000000      -0.00000000       0.01715187      -0.06513498       0.05593973    -163.17697923 F F F
 Si             8.14344530       8.14624059       0.00016920      -0.00000000       0.00000000      -0.00000000       0.02586333      -0.02678630      -0.00609457    -163.17606290 F F F
 Si             9.50176950       9.50358957       1.35608881      -0.00000000       0.00000000       0.00000000       0.01164936      -0.02801109       0.03983530    -163.18042869 F F F
 Si             5.42849990       5.43131651       5.42902508      -0.00000000       0.00000000      -0.00000000       0.03413648      -0.01980412       0.03170129    -163.17651284 F F F
 Si             6.78780197       6.78970735       6.78845970       0.00000000       0.00000000       0.00000000      -0.01301306      -0.04504627      -0.01429568    -163.16820136 F F F
 Si             5.43211061       8.14569609       8.14340554       0.00000000       0.00000000      -0.00000000      -0.03984013      -0.00977398       0.03626520    -163.17536094 F F F
 Si             6.78726891       9.50254951       9.50168223      -0.00000000      -0.00000000      -0.00000000      -0.00323683       0.00093420       0.01477145    -163.17105744 F F F
 Si             8.14462226       5.43206409       8.14590901      -0.00000000       0.00000000       0.00000000      -0.00200868      -0.05111781      -0.02747603    -163.18009027 F F F
 Si             9.50176527       6.78500346       9.50246937      -0.00000000      -0.00000000      -0.00000000       0.01715723       0.05277828       0.00661333    -163.17760627 F F F
 Si             8.14459720       8.14196934       5.43166265      -0.00000000      -0.00000000       0.00000000       0.00215698       0.06502072      -0.04060960    -163.17756755 F F F
 Si             9.50508237       9.50209763       6.78611145       0.00000000       0.00000000      -0.00000000      -0.05308914       0.01717514       0.02969075    -163.18220822 F F F
 Si             5.42985711       5.42939549      10.85777621      -0.00000000      -0.00000000      -0.00000000       0.00515873       0.01561899       0.04812619    -163.17543812 F F F
 Si             6.78747728       6.78852936      12.21985249       0.00000000       0.00000000       0.00000000      -0.00096294      -0.02705866      -0.05189464    -163.17263104 F F F
 Si             5.43209961       8.14255348      13.57488402       0.00000000      -0.00000000       0.00000000      -0.04409440       0.05997337      -0.00299105    -163.17819495 F F F
 Si             6.79131073       9.50239225      14.93040420       0.00000000      -0.00000000      -0.00000000      -0.07759880       0.00176408       0.04111447    -163.17323390 F F F
 Si             8.14499737       5.43101230      13.57466367      -0.00000000       0.00000000      -0.00000000      -0.00251701      -0.02520133       0.00560163    -163.17213289 F F F
 Si             9.50206152       6.78662685      14.93105450       0.00000000      -0.00000000      -0.00000000       0.00761256       0.01769851       0.02788571    -163.18067443 F F F
 Si             8.14371729       8.14604903      10.86006944      -0.00000000       0.00000000       0.00000000       0.02412421      -0.01220777       0.00139083    -163.18193519 F F F
 Si             9.50502010       9.50363514      12.21652307       0.00000000      -0.00000000       0.00000000      -0.05770111      -0.01714306       0.02301736    -163.17298781 F F F
 Si             5.42705810      10.86050338       0.00028877      -0.00000000       0.00000000      -0.00000000       0.07357795      -0.00882933      -0.00484564    -163.18185580 F F F
 Si             6.78945736      12.21907319       1.35884262       0.00000000       0.00000000       0.00000000      -0.04908863      -0.03058317      -0.01677776    -163.17281007 F F F
 Si             5.43046526      13.57659663       2.71410093       0.00000000       0.00000000       0.00000000      -0.01306001      -0.02681687       0.01838938    -163.17310018 F F F
 Si             6.78564447      14.93262566       4.07100697      -0.00000000      -0.00000000      -0.00000000       0.03230724       0.01475094       0.02523533    -163.18072458 F F F
 Si             8.14268238      10.85952538       2.71487112      -0.00000000      -0.00000000      -0.00000000       0.04962999       0.02094654       0.00412377    -163.17328986 F F F
 Si             9.50441844      12.21848038       4.07257458       0.00000000       0.00000000       0.00000000      -0.03924533      -0.03209953      -0.00045788    -163.17252472 F F F
 Si             8.14330157      13.57262703       0.00023845       0.00000000      -0.00000000       0.00000000       0.03400671       0.04945992      -0.00381114    -163.17664991 F F F
 Si             9.50306698      14.93430176       1.35843109       0.00000000       0.00000000      -0.00000000      -0.01811133      -0.03492147      -0.00980800    -163.17951810 F F F
 Si             5.43000444      10.86055707       5.43053780      -0.00000000      -0.00000000      -0.00000000      -0.00362420      -0.01659850      -0.01434982    -163.17285792 F F F
 Si             6.78659524      12.21471662       6.78886639      -0.00000000      -0.00000000       0.00000000       0.01224074       0.05896997      -0.02154903    -163.17749349 F F F
 Si             5.42932536      13.57671179       8.14482580      -0.00000000       0.00000000       0.00000000       0.02023932      -0.03804637       0.00703925    -163.17021846 F F F
 Si             6.78671064      14.93124142       9.50240384      -0.00000000      -0.00000000      -0.00000000       0.00948447       0.02274160      -0.00071240    -163.17213611 F F F
 Si             8.14256973      10.86238607       8.14729549      -0.00000000       0.00000000       0.00000000       0.04396898      -0.05412154      -0.04132279    -163.17272279 F F F
 Si             9.50268279      12.21605815       9.50063059      -0.00000000      -0.00000000      -0.00000000      -0.00602452       0.03198556       0.04359809    -163.17711672 F F F
 Si             8.14727712      13.57557220       5.42971244       0.00000000      -0.00000000      -0.00000000      -0.04888702      -0.01792566       0.00351585    -163.18107970 F F F
 Si             9.50155762      14.93142824       6.78837618       0.00000000      -0.00000000      -0.00000000       0.02689928       0.02482353      -0.01161638    -163.17191182 F F F
 Si             5.42949922      10.85898113      10.85993080       0.00000000      -0.00000000      -0.00000000       0.01074994       0.01661109      -0.00230336    -163.17517330 F F F
 Si             6.78721960      12.21678917      12.21914225       0.00000000      -0.00000000       0.00000000       0.00067653       0.01021400      -0.02896777    -163.17849255 F F F
 Si             5.43026620      13.57460096      13.57571709       0.00000000      -0.00000000       0.00000000      -0.01098589       0.01417063      -0.01659024    -163.17386235 F F F
 Si             6.78628837      14.93236497      14.93213134      -0.00000000       0.00000000      -0.00000000       0.01923239      -0.00098385       0.00572182    -163.17804044 F F F
 Si             8.14276939      10.85890986      13.57610086      -0.00000000      -0.00000000       0.00000000       0.05838088       0.02012093      -0.03049899    -163.17162724 F F F
 Si             9.50246270      12.21875289      14.93122505       0.00000000       0.00000000      -0.00000000      -0.00167099      -0.02957466       0.02194421    -163.17867959 F F F
 Si             8.14482943      13.57731331      10.86027479       0.00000000       0.00000000      -0.00000000       0.00434575      -0.04907502      -0.00309405    -163.17966597 F F F
 Si             9.50055600      14.93426173      12.21752829      -0.00000000       0.00000000       0.00000000       0.05145196      -0.03316473       0.00274936    -163.17334696 F F F
 Si            10.86160389      16.28879882       0.00145768       0.00000000      -0.00000000       0.00000000      -0.02757607       0.01871433      -0.03660218    -163.17693076 F F F
 Si            12.21725718       1.35695159       1.35732781      -0.00000000      -0.00000000      -0.00000000       0.00650057       0.01021792       0.00513266    -163.17036710 F F F
 Si            10.85986560       2.71411393       2.71511090      -0.00000000      -0.00000000      -0.00000000      -0.00075764       0.01918832       0.00058489    -163.18013503 F F F
 Si            12.21914266       4.07406676       4.07185291       0.00000000       0.00000000      -0.00000000      -0.02941299      -0.04365124       0.03154446    -163.17356728 F F F
 Si            13.57536906       0.00055027       2.71458221       0.00000000       0.00000000      -0.00000000      -0.00576366      -0.00765892       0.01768873    -163.17810162 F F F
 Si            14.93144909       1.35893319       4.07385738      -0.00000000       0.00000000       0.00000000       0.02414634      -0.01840790      -0.03361449    -163.17580570 F F F
 Si            13.57307373       2.71584951      16.28964755      -0.00000000       0.00000000      -0.00000000       0.04991103      -0.01544614       0.00474238    -163.18191219 F F F
 Si            14.93586306       4.07415966       1.35618381       0.00000000       0.00000000      -0.00000000      -0.05536601      -0.04550279       0.03696233    -163.17466928 F F F
 Si            10.86054301       0.00060535       5.42917856      -0.00000000       0.00000000      -0.00000000      -0.01024414      -0.01170684       0.01791641    -163.18059255 F F F
 Si            12.21920434       1.35770936       6.78715086       0.00000000       0.00000000      -0.00000000      -0.02724556       0.00102736      -0.00043432    -163.17343282 F F F
 Si            10.86014329       2.71539962       8.14507459       0.00000000      -0.00000000      -0.00000000      -0.00352299      -0.00908104      -0.00495942    -163.17880263 F F F
 Si            12.21769002       4.07213367       9.50224638       0.00000000       0.00000000       0.00000000      -0.00610309       0.01065369       0.01129793    -163.17882004 F F F
 Si            13.57512016       0.00033497       8.14297056       0.00000000      -0.00000000      -0.00000000      -0.00482797      -0.01216622       0.05055534    -163.17880144 F F F