      96
 Properties=species:S:1:pos:R:3:forces:R:3:local_energy:R:1:hirshfeld_v:R:1 Lattice="13.2544000000       0.0000000000    0.0000000000    0.0000000000   10.4800000000    0.0000000000    0.0000000000    0.0000000000   13.1289000000" energy=-534.439340 virial="-15.94975862         -0.00000000      0.00000000     -0.00000000      9.47992866     -0.00000001      0.00000000     -0.00000001     -3.67462116" stress="0.00874590            0.00000000     -0.00000000      0.00000000     -0.00519823      0.00000000     -0.00000000      0.00000000      0.00201494" volume=1823.684454
 P              1.65680000       1.06540304       0.35255473      -0.00000000       0.14139785       0.02856961      -5.56707646       0.96938824
 P              1.65680000       9.41459696       4.02374527       0.00000000      -0.14139785      -0.02856961      -5.56707646       0.96938824
 P              0.00000000       1.06540304       1.83559527       0.00000000       0.14139785      -0.02856961      -5.56707646       0.96938824
 P              0.00000000       9.41459696       2.54070473      -0.00000000      -0.14139785       0.02856961      -5.56707646       0.96938824
 P              0.00000000       6.30540304       0.35255473       0.00000000       0.14139785       0.02856961      -5.56707646       0.96938824
 P              0.00000000       4.17459696       4.02374527       0.00000000      -0.14139785      -0.02856961      -5.56707646       0.96938824
 P              1.65680000       6.30540304       1.83559527       0.00000000       0.14139785      -0.02856961      -5.56707646       0.96938824
 P              1.65680000       4.17459696       2.54070473      -0.00000000      -0.14139785       0.02856961      -5.56707646       0.96938824
 P              1.65680000       1.06540304       4.72885473      -0.00000000       0.14139785       0.02856961      -5.56707646       0.96938824
 P              1.65680000       9.41459696       8.40004527       0.00000000      -0.14139785      -0.02856961      -5.56707646       0.96938824
 P              0.00000000       1.06540304       6.21189527       0.00000000       0.14139785      -0.02856961      -5.56707646       0.96938824
 P              0.00000000       9.41459696       6.91700473      -0.00000000      -0.14139785       0.02856961      -5.56707646       0.96938824
 P              0.00000000       6.30540304       4.72885473       0.00000000       0.14139785       0.02856961      -5.56707646       0.96938824
 P              0.00000000       4.17459696       8.40004527       0.00000000      -0.14139785      -0.02856961      -5.56707646       0.96938824
 P              1.65680000       6.30540304       6.21189527       0.00000000       0.14139785      -0.02856961      -5.56707646       0.96938824
 P              1.65680000       4.17459696       6.91700473      -0.00000000      -0.14139785       0.02856961      -5.56707646       0.96938824
 P              1.65680000       1.06540304       9.10515473      -0.00000000       0.14139785       0.02856961      -5.56707646       0.96938824
 P              1.65680000       9.41459696      12.77634527       0.00000000      -0.14139785      -0.02856961      -5.56707646       0.96938824
 P              0.00000000       1.06540304      10.58819527       0.00000000       0.14139785      -0.02856961      -5.56707646       0.96938824
 P              0.00000000       9.41459696      11.29330473       0.00000000      -0.14139785       0.02856961      -5.56707646       0.96938824
 P              0.00000000       6.30540304       9.10515473       0.00000000       0.14139785       0.02856961      -5.56707646       0.96938824
 P              0.00000000       4.17459696      12.77634527       0.00000000      -0.14139785      -0.02856961      -5.56707646       0.96938824
 P              1.65680000       6.30540304      10.58819527       0.00000000       0.14139785      -0.02856961      -5.56707646       0.96938824
 P              1.65680000       4.17459696      11.29330473      -0.00000000      -0.14139785       0.02856961      -5.56707646       0.96938824
 P              4.97040000       1.06540304       0.35255473      -0.00000000       0.14139785       0.02856961      -5.56707646       0.96938824
 P              4.97040000       9.41459696       4.02374527       0.00000000      -0.14139785      -0.02856961      -5.56707646       0.96938824
 P              3.31360000       1.06540304       1.83559527       0.00000000       0.14139785      -0.02856961      -5.56707646       0.96938824
 P              3.31360000       9.41459696       2.54070473      -0.00000000      -0.14139785       0.02856961      -5.56707646       0.96938824
 P              3.31360000       6.30540304       0.35255473      -0.00000000       0.14139785       0.02856961      -5.56707646       0.96938824
 P              3.31360000       4.17459696       4.02374527       0.00000000      -0.14139785      -0.02856961      -5.56707646       0.96938824
 P              4.97040000       6.30540304       1.83559527       0.00000000       0.14139785      -0.02856961      -5.56707646       0.96938824
 P              4.97040000       4.17459696       2.54070473      -0.00000000      -0.14139785       0.02856961      -5.56707646       0.96938824
 P              4.97040000       1.06540304       4.72885473       0.00000000       0.14139785       0.02856961      -5.56707646       0.96938824
 P              4.97040000       9.41459696       8.40004527       0.00000000      -0.14139785      -0.02856961      -5.56707646       0.96938824
 P              3.31360000       1.06540304       6.21189527       0.00000000       0.14139785      -0.02856961      -5.56707646       0.96938824
 P              3.31360000       9.41459696       6.91700473      -0.00000000      -0.14139785       0.02856961      -5.56707646       0.96938824
 P              3.31360000       6.30540304       4.72885473      -0.00000000       0.14139785       0.02856961      -5.56707646       0.96938824
 P              3.31360000       4.17459696       8.40004527       0.00000000      -0.14139785      -0.02856961      -5.56707646       0.96938824
 P              4.97040000       6.30540304       6.21189527       0.00000000       0.14139785      -0.02856961      -5.56707646       0.96938824
 P              4.97040000       4.17459696       6.91700473      -0.00000000      -0.14139785       0.02856961      -5.56707646       0.96938824
 P              4.97040000       1.06540304       9.10515473       0.00000000       0.14139785       0.02856961      -5.56707646       0.96938824
 P              4.97040000       9.41459696      12.77634527       0.00000000      -0.14139785      -0.02856961      -5.56707646       0.96938824
 P              3.31360000       1.06540304      10.58819527       0.00000000       0.14139785      -0.02856961      -5.56707646       0.96938824
 P              3.31360000       9.41459696      11.29330473      -0.00000000      -0.14139785       0.02856961      -5.56707646       0.96938824
 P              3.31360000       6.30540304       9.10515473      -0.00000000       0.14139785       0.02856961      -5.56707646       0.96938824
 P              3.31360000       4.17459696      12.77634527      -0.00000000      -0.14139785      -0.02856961      -5.56707646       0.96938824
 P              4.97040000       6.30540304      10.58819527       0.00000000       0.14139785      -0.02856961      -5.56707646       0.96938824
 P              4.97040000       4.17459696      11.29330473      -0.00000000      -0.14139785       0.02856961      -5.56707646       0.96938824
 P              8.28400000       1.06540304       0.35255473      -0.00000000       0.14139785       0.02856961      -5.56707646       0.96938824
 P              8.28400000       9.41459696       4.02374527      -0.00000000      -0.14139785      -0.02856961      -5.56707646       0.96938824
 P              6.62720000       1.06540304       1.83559527      -0.00000000       0.14139785      -0.02856961      -5.56707646       0.96938824
 P              6.62720000       9.41459696       2.54070473      -0.00000000      -0.14139785       0.02856961      -5.56707646       0.96938824
 P              6.62720000       6.30540304       0.35255473      -0.00000000       0.14139785       0.02856961      -5.56707646       0.96938824
 P              6.62720000       4.17459696       4.02374527      -0.00000000      -0.14139785      -0.02856961      -5.56707646       0.96938824
 P              8.28400000       6.30540304       1.83559527       0.00000000       0.14139785      -0.02856961      -5.56707646       0.96938824
 P              8.28400000       4.17459696       2.54070473       0.00000000      -0.14139785       0.02856961      -5.56707646       0.96938824
 P              8.28400000       1.06540304       4.72885473      -0.00000000       0.14139785       0.02856961      -5.56707646       0.96938824
 P              8.28400000       9.41459696       8.40004527       0.00000000      -0.14139785      -0.02856961      -5.56707646       0.96938824
 P              6.62720000       1.06540304       6.21189527      -0.00000000       0.14139785      -0.02856961      -5.56707646       0.96938824
 P              6.62720000       9.41459696       6.91700473       0.00000000      -0.14139785       0.02856961      -5.56707646       0.96938824
 P              6.62720000       6.30540304       4.72885473       0.00000000       0.14139785       0.02856961      -5.56707646       0.96938824
 P              6.62720000       4.17459696       8.40004527      -0.00000000      -0.14139785      -0.02856961      -5.56707646       0.96938824
 P              8.28400000       6.30540304       6.21189527      -0.00000000       0.14139785      -0.02856961      -5.56707646       0.96938824
 P              8.28400000       4.17459696       6.91700473       0.00000000      -0.14139785       0.02856961      -5.56707646       0.96938824
 P              8.28400000       1.06540304       9.10515473      -0.00000000       0.14139785       0.02856961      -5.56707646       0.96938824
 P              8.28400000       9.41459696      12.77634527      -0.00000000      -0.14139785      -0.02856961      -5.56707646       0.96938824
 P              6.62720000       1.06540304      10.58819527      -0.00000000       0.14139785      -0.02856961      -5.56707646       0.96938824
 P              6.62720000       9.41459696      11.29330473      -0.00000000      -0.14139785       0.02856961      -5.56707646       0.96938824
 P              6.62720000       6.30540304       9.10515473       0.00000000       0.14139785       0.02856961      -5.56707646       0.96938824
 P              6.62720000       4.17459696      12.77634527      -0.00000000      -0.14139785      -0.02856961      -5.56707646       0.96938824
 P              8.28400000       6.30540304      10.58819527       0.00000000       0.14139785      -0.02856961      -5.56707646       0.96938824
 P              8.28400000       4.17459696      11.29330473      -0.00000000      -0.14139785       0.02856961      -5.56707646       0.96938824
 P             11.59760000       1.06540304       0.35255473      -0.00000000       0.14139785       0.02856961      -5.56707646       0.96938824
 P             11.59760000       9.41459696       4.02374527      -0.00000000      -0.14139785      -0.02856961      -5.56707646       0.96938824
 P              9.94080000       1.06540304       1.83559527       0.00000000       0.14139785      -0.02856961      -5.56707646       0.96938824
 P              9.94080000       9.41459696       2.54070473      -0.00000000      -0.14139785       0.02856961      -5.56707646       0.96938824
 P              9.94080000       6.30540304       0.35255473       0.00000000       0.14139785       0.02856961      -5.56707646       0.96938824
 P              9.94080000       4.17459696       4.02374527      -0.00000000      -0.14139785      -0.02856961      -5.56707646       0.96938824
 P             11.59760000       6.30540304       1.83559527       0.00000000       0.14139785      -0.02856961      -5.56707646       0.96938824
 P             11.59760000       4.17459696       2.54070473      -0.00000000      -0.14139785       0.02856961      -5.56707646       0.96938824
 P             11.59760000       1.06540304       4.72885473       0.00000000       0.14139785       0.02856961      -5.56707646       0.96938824
 P             11.59760000       9.41459696       8.40004527       0.00000000      -0.14139785      -0.02856961      -5.56707646       0.96938824
 P              9.94080000       1.06540304       6.21189527       0.00000000       0.14139785      -0.02856961      -5.56707646       0.96938824
 P              9.94080000       9.41459696       6.91700473      -0.00000000      -0.14139785       0.02856961      -5.56707646       0.96938824
 P              9.94080000       6.30540304       4.72885473      -0.00000000       0.14139785       0.02856961      -5.56707646       0.96938824
 P              9.94080000       4.17459696       8.40004527       0.00000000      -0.14139785      -0.02856961      -5.56707646       0.96938824
 P             11.59760000       6.30540304       6.21189527      -0.00000000       0.14139785      -0.02856961      -5.56707646       0.96938824
 P             11.59760000       4.17459696       6.91700473       0.00000000      -0.14139785       0.02856961      -5.56707646       0.96938824
 P             11.59760000       1.06540304       9.10515473       0.00000000       0.14139785       0.02856961      -5.56707646       0.96938824
 P             11.59760000       9.41459696      12.77634527       0.00000000      -0.14139785      -0.02856961      -5.56707646       0.96938824
 P              9.94080000       1.06540304      10.58819527       0.00000000       0.14139785      -0.02856961      -5.56707646       0.96938824
 P              9.94080000       9.41459696      11.29330473      -0.00000000      -0.14139785       0.02856961      -5.56707646       0.96938824
 P              9.94080000       6.30540304       9.10515473      -0.00000000       0.14139785       0.02856961      -5.56707646       0.96938824
 P              9.94080000       4.17459696      12.77634527      -0.00000000      -0.14139785      -0.02856961      -5.56707646       0.96938824
 P             11.59760000       6.30540304      10.58819527       0.00000000       0.14139785      -0.02856961      -5.56707646       0.96938824
 P             11.59760000       4.17459696      11.29330473      -0.00000000      -0.14139785       0.02856961      -5.56707646       0.96938824
