55
Lattice="20.107562 0.0 0.0 0.0 20.107562 0.0 0.0 0.0 20.107562" Properties=species:S:1:pos:R:3:frac_pos:R:3:force:R:3 fix_occupancy=F castep_run_time=779.36 xc_functional="L D A" cut_off_energy="6 5 0   e V" max_scf_cycles=200 calculate_stress=T castep_file_name="2 7 . c a s t e p" nneightol=1.2 detailed_ct="i t e r 5 _ 2" mix_charge_amp=0.15 virNOTUSED="117.62833322 15.75179383 -6.1861513 15.75179383 135.73473762 -25.37738869 -6.1861513 -25.37738869 137.01245538" popn_calculate=F smearing_width="0 . 1   e V" finite_basis_corr="a u t o m a t i c" spin_polarized=F mix_history_length=20 mixing_scheme="P u l a y" config_type="b u l k _ a m o" opt_strategy="s p e e d" energy=-19616.085321 write_checkpoint="n o n e" nextra_bands=24 elec_energy_tol=1e-08 kpoints_mp_grid="4 4 4" pdos_calculate_weights=F task="S i n g l e P o i n t" cutoff=-1.0 pbc="T T T"
C        2.42198307       3.36186525       6.77456892       0.26593100       0.36912900      -0.25616000       1.57860948       1.76196918      -0.34211838
C        0.11127619       5.58427432       4.77957568       0.01221800       0.61314700      -0.47520800       2.95384432       1.63347441      -0.52642334
C        9.06275279       0.76437946       1.17830905       0.99508000       1.08392800       0.12937700       1.89871457       2.53467033      -7.70593742
C        9.10299911       7.68381326       0.87990889      -0.00050100       0.84367400       1.09661300      -2.59765727      -3.14177841      -2.94251086
C        5.54187862       4.52294280       8.06053846       0.60849200      -0.50338600      -0.11496200      -4.11088229      -8.85040800       1.31809214
C        3.68438224       3.22897682       3.84146036      -0.59545900       0.35453800      -0.57821200      -3.17558248      -2.31547957       0.00650192
C        8.23352749       6.23672184       8.39420310      -0.09596800       0.68478500      -0.07832600      -1.53645883      -5.25102910      -1.56220429
C        3.61444527       5.24812331       2.01487505       0.39686200       0.57623800       0.22123100       3.42545341      -0.90819959       2.14573098
C        4.21163722       1.60290359       6.78384042       0.46243300       0.17599700       0.74485800      -1.42483261       3.92873399      -1.17707556
C        4.17011584       4.81494945       5.37243243       0.45787400       0.52867600      -0.41011300      -2.62760945       5.51300633       2.85879293
C        7.32645985       3.37193822       1.91190495       0.80443700       0.37023500       0.20992500       2.10214251      -1.40689704      -0.65563982
C        7.33047629       5.53033934       3.30542569       1.80487800      -0.39277500       1.36293200       1.69456418      -3.61750526      -1.36866587
C        7.73662801       6.47596839       2.42258417      -0.15052700      -0.28894600      -0.73400300       5.45832914       0.28333510      -1.18500076
C        8.50159036       5.28158449       0.26305371       0.93346500       1.57991200       1.02888300       1.52361238      -5.74548024       7.52380041
C        0.79296810       1.66010819       5.18723926       1.08706700      -0.81772200       1.56955300      -1.11627060       4.26370246      -5.32151772
C        7.93647525       2.49460677       8.82323302       1.87141600       1.27390500       0.96878100       2.98323934       4.64265478      -2.09744237
C        6.50414719       1.02782480       7.46172536      -0.28585200       1.11285400       0.81928900       1.64386368       0.09100281      -2.11173162
C        5.18595509       0.84861530       0.01607485       1.56941200       1.09317700       0.00176500      -0.89462834      -0.98033560      -0.91193266
C        3.80803561       6.68118908       7.12702246       0.41811800      -0.26641300       0.78253900       1.89467543       4.54350600       3.88902758
C        1.36233645       1.06407290       0.67845872       1.14958300      -0.88316600       1.07449400      -2.09774901      -2.16044872      -1.34262042
C        4.35111953       6.14550050       6.03891471       0.47774800       1.67476900      -0.33693400       3.74443853      -5.76946502      -3.26820376
C        1.25800022       8.35427555       0.99684088       1.13812700       0.91729000       1.10945200       1.17178186       2.10977858       0.85707309
C        2.71035581       1.97185093       6.49862800       1.29759400       1.21650700       0.71354200      -0.79603217      -7.66808860       1.79327003
C        1.21259902       4.02725463       6.07770381       0.13314200       0.44218800      -1.33267500      -3.67088875      -1.70282642       0.33325717
C        3.38299480       5.90325757       8.35329193       0.37144900       0.64817100       0.91718200      -2.61168465       2.09614513      -1.41644094
C        1.11688765       1.58986156       8.54461449       1.12263300       0.17456500       0.93818900       0.55125677       1.08563858      -7.14895088
C        1.22007633       2.27733677       3.65607594       0.13396300       0.25004900      -0.59856700       1.89603265      -1.59591984       6.51024306
C        0.41518643       3.90892007       0.46747294       1.04558700       0.42919500      -0.94867200       5.29832395       0.34419776      -4.71043725
C        1.28602418       8.25778093       4.62422799       0.14120400       0.90669500       0.50773500       2.91445604      -4.09317003      -4.21995388
C        7.94399809       3.51703989       4.79573249       0.87224200      -0.61383300       0.52656600      -3.65216663       5.11532553       3.61491198
C        5.21852374       6.94733937       5.36344326       1.57298800      -0.23719000      -0.41110000      -3.93663188      -1.60054405      -0.59800140
C        6.65334727       8.00104786       4.01803777       0.73053000      -0.12149400       0.44117600       1.75027201      -1.30075293      -3.93314988
C        2.11505823       4.30851436       2.13534077       0.23223100       0.47307000       0.23445800      -6.76898798       3.24101034       3.70395644
C        0.22900054       2.87700598       8.24908321       1.02514400       0.31589200      -0.09426000       0.34669379      -3.53006955       3.14891398
C        9.06153238       8.06204121       4.97881270       0.99494600      -0.11479700       0.54666800      -3.61844299      -2.22254690       0.04657140
C        1.69379706       5.65246263       4.36359689       1.18597700      -0.37936600       0.47911800      -3.80624002       1.10964493       0.76945263
C        8.34960337       4.78894736       4.01775544       0.91677700       0.52582100       0.44114500      -1.17706768      -4.71135367      -2.88952456
C        9.07461995       6.02763954       1.54838572       1.99638300       0.66182800       1.17001100      -2.38126359      -0.79301421      -2.18529075
C        5.48737897       2.02758921       0.81266776       1.60250800       0.22262700       2.08923000       3.03965349      -0.56080889      -0.09695984
C        5.47575772       4.38452607       4.81812799       0.60123200       0.48141600       0.52902500       1.44636212      -0.33458589      -0.62922711
C        7.98399851       1.25607852       0.49578835       0.87663400       0.13791600       1.05443700      -3.02577234       2.12282196      -4.09693073
C        1.28534112       6.33036580       3.15444053       1.14112900      -0.30493300       0.34635400       1.87746652      -4.22778043       0.04446655
C        3.76680568       6.90565406       1.96595833       1.41359100       0.75823300       0.21586000       0.01254917      -3.75913879      -1.02702393
C        6.01254831       3.39779459       7.04350612      -0.33982900       0.37307400       0.77336900       2.10536378      -0.77152269      -2.63069485
C        4.90995953       2.91576776       4.61083077       0.53910800       1.32014800       0.50626400       3.67455189       3.81141253      -3.69556442
C        4.69083159       8.17017529       5.44941865       1.51504800       0.89707600      -0.40166000      -5.38975260       3.93105249       0.97448245
C        5.01027022       5.59038549       2.96976649      -0.44987800       0.61381800       0.32607700       2.40526408      -0.20689447      -2.71731874
C        3.28068955       6.88050808       0.37709860       1.36021600       0.75547200       2.04140500       1.33346206       2.06513110       1.38905490
C        2.29620764       2.19486780       1.29786402       1.25212100       1.24099400       0.14250400      -0.28905316      -1.50360896      -2.40727892
C        7.86404281       8.19661454       7.50795535      -0.13653700       0.89997900       0.82436500       2.87895445       3.17978232       0.05786374
C        7.28883651       0.24392783       8.44931296      -0.19969400       2.02678300      -1.07227500       1.75594735      -0.68166052      -2.08771456
C        3.00047719       5.42967345       4.57430944       0.32944900       0.59617200      -0.49774600       1.75495838      -1.67808384      -2.87002430
C        6.93939758       1.91383576       1.38696329       0.76193800       1.21013700       0.15228700      -1.04146103      -2.76394280       0.89555735
C        1.09663243       8.80526380       6.89768494       1.12040900      -0.03319200      -0.24264200       5.19721422      -3.52980701       0.45237485
C        3.90606030       4.57209631       8.50600753       1.42888100       0.50201100       0.93395000      -0.11974075       0.62398358       0.36934248
