125
Lattice="9.107562 0.0 0.0 0.0 9.107562 0.0 0.0 0.0 9.107562" Properties=species:S:1:pos:R:3:frac_pos:R:3:force:R:3 fix_occupancy=F castep_run_time=779.36 xc_functional="L D A" cut_off_energy="6 5 0   e V" max_scf_cycles=200 calculate_stress=T castep_file_name="2 7 . c a s t e p" nneightol=1.2 detailed_ct="i t e r 5 _ 2" mix_charge_amp=0.15 virNOTUSED="117.62833322 15.75179383 -6.1861513 15.75179383 135.73473762 -25.37738869 -6.1861513 -25.37738869 137.01245538" popn_calculate=F smearing_width="0 . 1   e V" finite_basis_corr="a u t o m a t i c" spin_polarized=F mix_history_length=20 mixing_scheme="P u l a y" pbc="T T T" config_type="b u l k _ a m o" opt_strategy="s p e e d" energy=-19616.085321 write_checkpoint="n o n e" nextra_bands=24 elec_energy_tol=1e-08 kpoints_mp_grid="4 4 4" pdos_calculate_weights=F task="S i n g l e P o i n t" cutoff=-1.0
C       8.35934846       3.10682619       2.98379214       0.91784700       1.34112600      -0.67238300      -2.19813025      -1.01415963      -2.78678754 
C       5.91582600       0.89333343       3.67235115      -0.35044900       0.09808700      -0.59678000      -3.49970284       3.23653123      -5.04909384 
C       5.96669174       4.33999920       0.28897383       0.65513600      -0.52347300       0.03172900       2.75830812       1.78531435       2.53893547 
C       6.75613521       8.63649157       1.53293019      -0.25818400       0.94827700       0.16831400      -0.50630340       0.10987352       2.00007428 
C       5.84463219       6.01508932       0.81335993       0.64173400      -1.33955000       1.08930600      -4.79204669      -3.13750709       2.73237159 
C       8.63925116       0.96398990       5.59148751      -0.05142000       0.10584500       0.61393900       1.90254788       3.25817843       5.54785430 
C       5.34793308       6.63465855       2.07477548       0.58719700      -0.27152200       1.22780800      -2.82198953       2.15342963      -0.13880927 
C       2.65213116       1.97904590       3.77758903      -0.70879900       1.21729700       2.41477500      -1.33335729       5.03547457       0.78093540 
C       6.41502969       0.50814731       4.91399418      -0.29563700      -0.94420600      -1.46044900       3.23901918      -2.51852195      -0.67787900 
C       4.18430542       0.13081191       0.53060656       0.45943200       1.01436300       1.05826000      -6.18282336      -2.27884497       1.53855627 
C       1.20501242       7.52252745       7.85611923       0.13230900       1.82596500       0.86259300       0.99172838       8.41022986       2.01015753 
C       2.38661841       0.00142989       4.84370202       1.26204800       1.00015700       0.53183300       2.91858552      -1.28741373      -0.67077974 
C       6.86508898       6.60882950       0.31249867      -0.24622100      -0.27435800       0.03431200      10.04721097       5.00138502      -4.08423276 
C       3.19257389       2.97317272       0.49341128       0.35054100       0.32645100       1.05417600      -3.48756380      -1.22000119      -3.45175203 
C       7.70704665       3.94912996       0.59706444      -0.15377500       0.43361000       1.06555700      -5.47863947       1.10222238      -2.34364305 
C       8.07495573       8.07008318       3.74463787       0.88662100       0.88608600       0.41115700       0.21122939       3.92913063       0.25654211 
C       2.24602497       1.28535023       5.23178435       0.24661100       2.14113000       0.57444400       0.24607604       6.34403761      -0.46250803 
C       6.52342790       7.75507083       6.75200949       0.71626500      -0.14850200       1.74136300       3.93965815      -0.35356222      -0.28604560 
C       2.11896537       8.02249617       5.81112547      -0.76734000       0.88086100      -0.36194500       2.03514527       3.42735663       3.19545470 
C       3.30383187       7.51181695       3.36561757       0.36275700      -0.17521100      -0.63045900      -2.85401797      -2.41975295      -3.63382903 
C       6.90350467       5.31816046       6.46059483       0.75799700       0.58392800      -0.29063400       3.34038608       2.56178501       0.41680878 
C       6.04355045       5.39654014       3.94453975       0.66357500       1.59253400       0.43310600      -2.19137266      -0.14957914      -3.72120548 
C       6.07887869       0.00795090       6.24465453      -0.33254600       1.00087300       0.68565600      -0.07711398      -0.39733086      -0.91410550 
C       3.89412939       4.19728370       0.85005430       0.42757100       0.46085700       1.09333500       1.96595120      -1.49172216       2.66724740 
C       9.05672359       7.43020409       8.49744642       0.99441800      -0.18417200       0.93301000      -6.43667874       0.93128363      -0.18345761 
C       5.19159267       3.42395150       1.18924723      -0.42996900      -0.62405400       0.13057800      -1.36888094       0.81091918      -4.88819023 
C       7.26396376       2.29495990       7.54791022       1.79757500      -0.74801600      -1.17124800      -5.42632397       1.94506293      -3.12917502 
C       8.91894439       8.75143811       6.25655811      -1.02071000      -0.03910200       0.68696300      -4.32241018       2.14404820       1.20791900 
C       0.16529314       0.80755841       2.42479731      -0.98185100      -0.91133100       2.26624000       1.16969321      -3.87383565       8.93261113 
C       6.94731205       0.76128289       2.30708207       0.76280700      -0.91641200       1.25331500       0.54350916       0.28929431       4.33910033 
C       1.77676695       5.63142417       8.32613318      -0.80491300      -0.38167600      -1.08580000       1.88355875       2.55185631      -3.87899829 
C       3.86072285       8.54635403       4.19283921      -1.57609700       0.93838000       0.46036900       0.67911066       0.45360367      -0.55929358 
C       3.51536410       8.04354375       6.39073072       0.38598300       0.88317200       0.70169500      -2.04470398      -3.85793411       2.32740776 
C       5.47101268       7.02361520       7.62841196       0.60071100      -0.22881500      -0.16240900       1.10122191      -0.22788942       2.28532058 
C       8.41016865       2.14938463       6.70108000       0.92342700       0.23600000       0.73577100       1.47450866      -0.54433802       0.16691690 
C       6.27904468       6.66750953       4.54184099       0.68943200      -0.26791500       0.49868900      -1.62073237       3.21721421       3.63080976 
C       0.25349988       5.27834220       6.12123796       0.02783400       0.57955600       1.67210500       3.70873850      -1.95207935       9.32387722 
C       1.33707207       8.72950710       2.37445070       0.14680900       0.95849000       0.26071200       0.72098131       0.32639594       0.55738301 
C       5.09368638       0.88935343       7.48541413      -0.44071900       0.09765000      -0.17811000      -0.67158878       1.05736744       3.88744238 
C       8.97522002       3.01991273       5.77250030       0.98546900      -0.66841700      -0.36618600       5.85772534       1.73159706      -2.57675600 
C       7.63624447       7.49841973       1.27248124       0.83845100       0.82331800       0.13971700       1.81453293      -0.64171157       3.57876093 
C       7.67297526       1.27919351       4.60898193      -1.15751600       0.14045400      -0.49393900      -0.55861626      -4.59983072      -2.12567206 
C       6.32874465       8.78495394       0.18031151       0.69488900       0.96457800       1.01979800      -5.61905099       1.77181269       2.06831860 
C       1.51064399       4.52405392       8.80993598      -0.83413300      -0.50326400       1.96732100      -0.07532514      -7.50628640       3.96289850 
C       4.98173623       0.02755948       3.08614292      -0.45301100       2.00302600       1.33885500      -5.57104089       0.27935208       0.79193028 
C       2.11620578       7.64741945       0.08454550       0.23235700       0.83967800       0.00928300      -0.40235103       3.69654357      -1.32649168 
C       0.49068812       2.22403021       2.50783095       0.05387700       0.24419600       0.27535700      -3.95631065       7.05014673       4.21430441 
C       8.04015573       0.56145387       3.27396817      -0.11720000       1.06164700       0.35947800       3.22056228      -3.31715644      -0.46358307 
C       1.57107266       7.65272005       3.24220100      -0.82749800       0.84026000      -0.64401000       2.74107875       3.10914635       3.26908741 
C       3.12226351       1.75595617       2.36408630       0.34282100       1.19280200       1.25957400       0.44541004      -2.08187500       5.04837912 
C       5.96609064       2.49327707       3.59044684       1.65507000      -0.72624100      -0.60577300      -6.02413349      -1.43248633      -1.31964986 
C       1.11819914       3.20565235       1.64755797       0.12277700      -0.64802300      -0.81910000       2.89109379      -0.10572374      -2.06868649 
C       1.09592204       5.43527460       2.13277244      -0.87966900      -0.40321300       0.23417600       1.83972248       1.85103285       2.32737569 
C       7.21359894       6.68913088       5.68393837       0.79204500       0.73445900       0.62409000      -2.04196954      -1.93783075       3.55698284 
C       3.16535139       4.56323465       3.26716482      -1.65244800       1.50103800       1.35873100      -2.66293684      -3.52213739      -1.40147990 
C       7.25825332       2.54969841       3.93933022      -1.20305200      -1.72004600      -0.56746600      10.01750355       0.78400827       4.31077400 
C       6.66485012       4.13365827       5.62837313      -0.26820700       0.45387100       0.61798900      -0.52450116       0.19312320       5.98463029 
C       5.88403151       5.61381925       7.50442161       0.64606000      -0.38360900       0.82397700       3.19405744       6.48619973      -7.06076122 
C       1.02999240       6.29921793       7.43802749      -1.88690800       0.69164700      -1.18331300       1.18604552      -4.61555781      -4.91986977 
C       3.79428319       3.70562107       6.11882445      -0.58339200       0.40687300       0.67184000      -8.40386947       5.46965979       0.98986078 
C       5.92161841       8.03262378       2.53539954       0.65018700       0.88197300       0.27838400      -3.44905526      -1.54835076       2.77110647 
C       2.67925348       3.67378104       8.37871114       0.29417900       0.40337700       0.91997300       1.50442815      -1.88472878      -1.38104753 
C       5.85097106       7.47756341       9.01444629       2.64243000      -0.17897200       1.98977600      -2.70542151      -2.92297877      -5.31620214 
C       5.92308473       3.46386995       2.31613498       0.65034800       1.38032900       0.25430900       1.48135123       0.88128495       7.13141056 
C       8.50695472       6.72995097       5.20322303       0.93405400      -0.26105900      -0.42869200       2.88465100       2.68932352      -1.11498214 
C       4.01168069       0.75493492       2.35258345      -1.55952200       1.08289100       0.25831100       1.09102415      -0.79696240      -7.07106287 
C       1.64661078       0.95836143       7.34550376       1.18079600       2.10522700       0.80652800       0.16042156       2.68199527       2.43022508 
C       4.84733594       2.96443857       6.12668428       0.53223200       0.32549200       0.67270300       3.24065264     -11.27207461       3.18586710 
C       3.44345079       8.21163291       8.86840653       0.37808700      -0.09837200       0.97374100       1.11232694       4.07447442       2.64604761 
C       8.23754392       5.16237562       7.16385344       0.90447300      -0.43317700       0.78658300      -0.69598814       1.42963553      -0.42888156 
C       2.42198307       3.36186525       6.77456892       0.26593100       0.36912900      -0.25616000       1.57860948       1.76196918      -0.34211838 
C       0.11127619       5.58427432       4.77957568       0.01221800       0.61314700      -0.47520800       2.95384432       1.63347441      -0.52642334 
C       9.06275279       0.76437946       1.17830905       0.99508000       1.08392800       0.12937700       1.89871457       2.53467033      -7.70593742 
C       9.10299911       7.68381326       0.87990889      -0.00050100       0.84367400       1.09661300      -2.59765727      -3.14177841      -2.94251086 
C       5.54187862       4.52294280       8.06053846       0.60849200      -0.50338600      -0.11496200      -4.11088229      -8.85040800       1.31809214 
C       3.68438224       3.22897682       3.84146036      -0.59545900       0.35453800      -0.57821200      -3.17558248      -2.31547957       0.00650192 
C       8.23352749       6.23672184       8.39420310      -0.09596800       0.68478500      -0.07832600      -1.53645883      -5.25102910      -1.56220429 
C       3.61444527       5.24812331       2.01487505       0.39686200       0.57623800       0.22123100       3.42545341      -0.90819959       2.14573098 
C       4.21163722       1.60290359       6.78384042       0.46243300       0.17599700       0.74485800      -1.42483261       3.92873399      -1.17707556 
C       4.17011584       4.81494945       5.37243243       0.45787400       0.52867600      -0.41011300      -2.62760945       5.51300633       2.85879293 
C       7.32645985       3.37193822       1.91190495       0.80443700       0.37023500       0.20992500       2.10214251      -1.40689704      -0.65563982 
C       7.33047629       5.53033934       3.30542569       1.80487800      -0.39277500       1.36293200       1.69456418      -3.61750526      -1.36866587 
C       7.73662801       6.47596839       2.42258417      -0.15052700      -0.28894600      -0.73400300       5.45832914       0.28333510      -1.18500076 
C       8.50159036       5.28158449       0.26305371       0.93346500       1.57991200       1.02888300       1.52361238      -5.74548024       7.52380041 
C       0.79296810       1.66010819       5.18723926       1.08706700      -0.81772200       1.56955300      -1.11627060       4.26370246      -5.32151772 
C       7.93647525       2.49460677       8.82323302       1.87141600       1.27390500       0.96878100       2.98323934       4.64265478      -2.09744237 
C       6.50414719       1.02782480       7.46172536      -0.28585200       1.11285400       0.81928900       1.64386368       0.09100281      -2.11173162 
C       5.18595509       0.84861530       0.01607485       1.56941200       1.09317700       0.00176500      -0.89462834      -0.98033560      -0.91193266 
C       3.80803561       6.68118908       7.12702246       0.41811800      -0.26641300       0.78253900       1.89467543       4.54350600       3.88902758 
C       1.36233645       1.06407290       0.67845872       1.14958300      -0.88316600       1.07449400      -2.09774901      -2.16044872      -1.34262042 
C       4.35111953       6.14550050       6.03891471       0.47774800       1.67476900      -0.33693400       3.74443853      -5.76946502      -3.26820376 
C       1.25800022       8.35427555       0.99684088       1.13812700       0.91729000       1.10945200       1.17178186       2.10977858       0.85707309 
C       2.71035581       1.97185093       6.49862800       1.29759400       1.21650700       0.71354200      -0.79603217      -7.66808860       1.79327003 
C       1.21259902       4.02725463       6.07770381       0.13314200       0.44218800      -1.33267500      -3.67088875      -1.70282642       0.33325717 
C       3.38299480       5.90325757       8.35329193       0.37144900       0.64817100       0.91718200      -2.61168465       2.09614513      -1.41644094 
C       1.11688765       1.58986156       8.54461449       1.12263300       0.17456500       0.93818900       0.55125677       1.08563858      -7.14895088 
C       1.22007633       2.27733677       3.65607594       0.13396300       0.25004900      -0.59856700       1.89603265      -1.59591984       6.51024306 
C       0.41518643       3.90892007       0.46747294       1.04558700       0.42919500      -0.94867200       5.29832395       0.34419776      -4.71043725 
C       1.28602418       8.25778093       4.62422799       0.14120400       0.90669500       0.50773500       2.91445604      -4.09317003      -4.21995388 
C       7.94399809       3.51703989       4.79573249       0.87224200      -0.61383300       0.52656600      -3.65216663       5.11532553       3.61491198 
C       5.21852374       6.94733937       5.36344326       1.57298800      -0.23719000      -0.41110000      -3.93663188      -1.60054405      -0.59800140 
C       6.65334727       8.00104786       4.01803777       0.73053000      -0.12149400       0.44117600       1.75027201      -1.30075293      -3.93314988 
C       2.11505823       4.30851436       2.13534077       0.23223100       0.47307000       0.23445800      -6.76898798       3.24101034       3.70395644 
C       0.22900054       2.87700598       8.24908321       1.02514400       0.31589200      -0.09426000       0.34669379      -3.53006955       3.14891398 
C       9.06153238       8.06204121       4.97881270       0.99494600      -0.11479700       0.54666800      -3.61844299      -2.22254690       0.04657140 
C       1.69379706       5.65246263       4.36359689       1.18597700      -0.37936600       0.47911800      -3.80624002       1.10964493       0.76945263 
C       8.34960337       4.78894736       4.01775544       0.91677700       0.52582100       0.44114500      -1.17706768      -4.71135367      -2.88952456 
C       9.07461995       6.02763954       1.54838572       1.99638300       0.66182800       1.17001100      -2.38126359      -0.79301421      -2.18529075 
C       5.48737897       2.02758921       0.81266776       1.60250800       0.22262700       2.08923000       3.03965349      -0.56080889      -0.09695984 
C       5.47575772       4.38452607       4.81812799       0.60123200       0.48141600       0.52902500       1.44636212      -0.33458589      -0.62922711 
C       7.98399851       1.25607852       0.49578835       0.87663400       0.13791600       1.05443700      -3.02577234       2.12282196      -4.09693073 
C       1.28534112       6.33036580       3.15444053       1.14112900      -0.30493300       0.34635400       1.87746652      -4.22778043       0.04446655 
C       3.76680568       6.90565406       1.96595833       1.41359100       0.75823300       0.21586000       0.01254917      -3.75913879      -1.02702393 
C       6.01254831       3.39779459       7.04350612      -0.33982900       0.37307400       0.77336900       2.10536378      -0.77152269      -2.63069485 
C       4.90995953       2.91576776       4.61083077       0.53910800       1.32014800       0.50626400       3.67455189       3.81141253      -3.69556442 
C       4.69083159       8.17017529       5.44941865       1.51504800       0.89707600      -0.40166000      -5.38975260       3.93105249       0.97448245 
C       5.01027022       5.59038549       2.96976649      -0.44987800       0.61381800       0.32607700       2.40526408      -0.20689447      -2.71731874 
C       3.28068955       6.88050808       0.37709860       1.36021600       0.75547200       2.04140500       1.33346206       2.06513110       1.38905490 
C       2.29620764       2.19486780       1.29786402       1.25212100       1.24099400       0.14250400      -0.28905316      -1.50360896      -2.40727892 
C       7.86404281       8.19661454       7.50795535      -0.13653700       0.89997900       0.82436500       2.87895445       3.17978232       0.05786374 
C       7.28883651       0.24392783       8.44931296      -0.19969400       2.02678300      -1.07227500       1.75594735      -0.68166052      -2.08771456 
C       3.00047719       5.42967345       4.57430944       0.32944900       0.59617200      -0.49774600       1.75495838      -1.67808384      -2.87002430 
C       6.93939758       1.91383576       1.38696329       0.76193800       1.21013700       0.15228700      -1.04146103      -2.76394280       0.89555735 
C       1.09663243       8.80526380       6.89768494       1.12040900      -0.03319200      -0.24264200       5.19721422      -3.52980701       0.45237485 
C       3.90606030       4.57209631       8.50600753       1.42888100       0.50201100       0.93395000      -0.11974075       0.62398358       0.36934248 
