12800
Lattice="196.8 0.0 0.0 0.0 170.433799465 0.0 0.0 0.0 20.0" Properties=species:S:1:pos:R:3:velocities:R:3:forces:R:3:local_energy:R:1:fix_atoms:S:3 pbc="T T T"
C        0.00007280       0.72141999       4.98292360       0.00001556      -0.00050860       0.00293290       0.00126470      -0.23202922      -0.00652463      -9.32062882 F F F
C        1.22032748       1.41959639       4.96265180       0.00239234      -0.00066119       0.00018068       0.42832645       0.07681444      -0.21130782      -9.33291776 F F F
C        1.22913662       2.83196030       4.92761451       0.00322926       0.00056894      -0.00271810       0.02801113       0.28101491      -0.26080655      -9.36599382 F F F
C        2.45504742       3.54196757       4.83134599       0.00178549       0.00111941      -0.00424197       0.02135537       0.12324162       0.33359087      -9.34514486 F F F
C        0.00013675       4.96459699       4.87931208      -0.00001679       0.00284752      -0.00818969      -0.00804685       0.17434498      -0.59751482      -9.38962175 F F F
C        1.24051163       5.67621857       4.82363190       0.00238367       0.00046940      -0.00650449      -0.45165842       0.02451111       0.03167410      -9.35974332 F F F
C        1.24346651       7.10365406       4.80410472      -0.00083139       0.00006540      -0.00382707      -0.40415082      -0.20293278       0.32130257      -9.35750177 F F F
C        2.47796456       7.80421962       4.91866842      -0.00142246      -0.00035126       0.00878186      -0.63018483       0.17619873       0.20194825      -9.34244605 F F F
C        0.00005487       9.24126442       4.78007926      -0.00001637       0.00025661      -0.00710111       0.00125651      -0.15961045       0.09725188      -9.33836656 F F F
C        1.23553954       9.94899973       4.81561560       0.00154153       0.00009830      -0.00273161       0.02661710      -0.17771153       0.13137534      -9.36434679 F F F
C        1.24042103      11.37363902       4.80851605      -0.00095403       0.00069254      -0.00308339      -0.31978809      -0.18933026       0.34657329      -9.35238537 F F F
C        2.47244215      12.07806421       4.88987605      -0.00137985       0.00037112       0.00607181      -0.36474243      -0.08992436       0.20210815      -9.34014945 F F F
C       19.67993459      13.50486019       4.87171302      -0.00003077      -0.00004538      -0.00866289       0.00324182      -0.12127646      -0.55640768      -9.35229436 F F F
C        1.23717284      14.21398182       4.86525047       0.00048702      -0.00118506      -0.00525928      -0.31529143      -0.14472678      -0.04575588      -9.40004797 F F F
C        1.21983304      15.63627496       4.92436488       0.00110708      -0.00123019      -0.00291118       0.26275538      -0.28367875      -0.25663153      -9.34917862 F F F
C        2.45070293      16.33235710       4.88361541       0.00081251       0.00003969      -0.00413605       0.07464050       0.21903312      -0.04632517      -9.36234825 F F F
C        2.44533223       0.71080681       4.91182801       0.00209704      -0.00028850      -0.00477227       0.37720227      -0.00640965      -0.39853726      -9.38183423 F F F
C        3.67643273       1.42415446       4.83191184      -0.00037890       0.00208527      -0.00758814       0.18056439      -0.20042161      -0.10955284      -9.37334159 F F F
C        3.68906119       2.84465787       4.81928845      -0.00137964       0.00082457      -0.00165735      -0.19477516      -0.16671619       0.50451624      -9.32453713 F F F
C        4.90887758       3.56594529       4.91723385      -0.00205046      -0.00123805       0.00873177       0.17380604      -0.60325428       0.21430665      -9.35188503 F F F
C        2.46701314       4.96032379       4.81472687       0.00138383      -0.00073843       0.00103686      -0.35569705       0.15348870       0.85950141      -9.32180802 F F F
C        3.68289533       5.67471401       4.96414466      -0.00134323      -0.00083830       0.01441928       0.01156772       0.00007563       0.40505261      -9.34004332 F F F
C        3.68292462       7.08186140       5.07770866       0.00017582       0.00055466       0.00745367       0.41159587       0.70574579      -0.88194067      -9.33594010 F F F
C        4.92095053       7.80366013       5.18290760       0.00345667       0.00067523      -0.01043322      -0.55163945       0.08523480      -0.59940523      -9.36498381 F F F
C        2.46076868       9.22573105       4.92590598       0.00075338      -0.00069545       0.00432685       0.04314168       0.20632799       0.08333983      -9.35611018 F F F
C        3.68089614       9.93945202       5.07194065      -0.00007580      -0.00101866       0.00565518       0.02865981       0.02323984       0.09168013      -9.34589407 F F F
C        3.67893831      11.35931971       5.07969927      -0.00069999      -0.00062089       0.00474815       0.49490347       0.24623609      -1.02448251      -9.34743803 F F F
C        4.91968646      12.07421239       5.11234515       0.00056837      -0.00066199      -0.00153062      -0.46071654       0.21749767       0.01233589      -9.37912167 F F F
C        2.46938008      13.49621370       4.82708064       0.00085330      -0.00002226       0.00256023      -0.42799532       0.03400240       0.86277835      -9.31544615 F F F
C        3.69092260      14.20120312       4.88846564      -0.00041480       0.00095646       0.00689684      -0.09557471       0.11307067       0.35848956      -9.30490866 F F F
C        3.67395172      15.61541473       4.82600605      -0.00006462      -0.00005185      -0.00079268       0.19953118       0.32165771       0.51402054      -9.33633571 F F F
C        4.90224086      16.32428954       4.81328953       0.00017860      -0.00110217      -0.00285405       0.40770439       0.16938541       0.13299304      -9.35227777 F F F
C        4.90530811       0.70462864       4.77726468      -0.00121740      -0.00006271      -0.00720061       0.20089929       0.11363206       0.10148922      -9.35032098 F F F
C        6.14676833       1.41465906       4.75843123       0.00005353      -0.00066058      -0.00477500      -0.21400374       0.34181142       0.32154288      -9.36684338 F F F
C        6.13803092       2.84478167       4.90938993      -0.00189549      -0.00119824       0.00226821       0.16321596      -0.19466866      -0.04514207      -9.37425497 F F F
C        7.36597762       3.55327347       5.07533275      -0.00215039       0.00011408       0.00411898       0.09070714      -0.51021667      -0.18326374      -9.33583484 F F F
C        4.89736561       4.97159518       5.07755178       0.00013118      -0.00033973       0.00759584       0.93576290      -0.04593744      -0.85355399      -9.33034065 F F F
C        6.14363775       5.67964610       5.18558402       0.00098190       0.00307780      -0.01014207      -0.30770759      -0.35349992      -0.55126831      -9.36233366 F F F
C        6.13675094       7.08860306       5.14714858      -0.00116707      -0.00055708      -0.00253824       0.52641854       0.46268060       1.62168383      -9.32152262 F F F
C        7.38285851       7.81057297       5.26650091      -0.00343151      -0.00214287       0.01831720      -0.71746405      -0.36252366      -0.69848801      -9.33782303 F F F
C        4.90809360       9.23505307       5.19526996       0.00003357       0.00061407       0.00322233       0.12786237      -0.37245806      -0.23118314      -9.36146410 F F F
C        6.13723121       9.94603531       5.24764292      -0.00037390       0.00076684      -0.00179398       0.18446786      -0.12832727      -0.93385152      -9.33367233 F F F
C        6.14439221      11.36903562       5.13542615       0.00096077      -0.00135510       0.00243997       0.06702051      -0.21131560       1.63934812      -9.32920083 F F F
C        7.37152051      12.08170607       5.25279716      -0.00150996      -0.00142086      -0.00117709       0.08604600      -0.15462143      -0.88737740      -9.31868896 F F F
C        4.90630239      13.50710731       5.08052448      -0.00030511       0.00050861       0.00491876       0.30622673      -0.63261990      -1.00700925      -9.34780701 F F F
C        6.13911913      14.20820771       5.07694143      -0.00016056       0.00122550       0.00529653       0.05228918       0.16974638      -0.00670848      -9.34925317 F F F
C        6.14221923      15.62274410       4.90750988       0.00102000       0.00066011       0.00223364      -0.00960561      -0.06417119      -0.02177933      -9.37108583 F F F
C        7.38311054      16.32528978       4.85000484      -0.00004411       0.00194721       0.00471373      -0.23841588       0.09799719       0.31306204      -9.34221622 F F F
C        7.38386547       0.70028651       4.69994518       0.00017093       0.00018838      -0.00192348      -0.30038922       0.27025333       1.09694816      -9.24621598 F F F
C        8.60943287       1.42942916       4.76533729       0.00018326      -0.00236042       0.00071006      -0.10116807      -0.02568898       0.54384750      -9.28818113 F F F
C        8.59482838       2.82954265       5.05294193      -0.00110361      -0.00213381       0.00048682       0.55803029       0.29292770      -1.30688206      -9.34857973 F F F
C        9.83991229       3.55554086       5.12412495      -0.00001693       0.00071831      -0.00334856       0.00125430      -0.83363302      -0.41792487      -9.35396324 F F F
C        7.37663894       4.96412885       5.20867696      -0.00013986       0.00097627       0.00401130      -0.33206192       0.03138992      -0.28927267      -9.33635749 F F F
C        8.60519136       5.66653346       5.25784181       0.00057033       0.00046582      -0.00066643       0.03531930       0.32204746      -0.84956782      -9.32290778 F F F
C        8.59403538       7.09054809       5.25549980       0.00250175       0.00263966      -0.00755074       0.93734660       0.21877527       0.67492587      -9.35817584 F F F
C        9.83988958       7.80798729       5.29896374      -0.00004726      -0.00213561      -0.00015040       0.00395883      -0.33915461       0.59475142      -9.38219988 F F F
C        7.36880680       9.22194699       5.25451167       0.00308183       0.00083856      -0.00791588       0.40050731       0.73212718       0.60058402      -9.37400407 F F F
C        8.60969540       9.94723709       5.29840513      -0.00176661       0.00070849      -0.00028388      -0.37386910       0.04137579       0.58505872      -9.36817882 F F F
C        8.61323003      11.38200306       5.25653093       0.00036757      -0.00386005      -0.00745202      -0.51035588      -0.93056426       0.66472066      -9.36780698 F F F
C        9.83985707      12.06699849       5.27345615       0.00000861       0.00270821       0.01913512       0.01206334       0.91073448      -0.60661164      -9.30769206 F F F
C        7.36139950      13.49610344       5.20866622      -0.00180662      -0.00098830       0.00392516       0.47258656       0.28485062      -0.24445927      -9.34252999 F F F
C        8.60848204      14.19818039       5.20514545       0.00021715      -0.00229162      -0.01079067      -0.21051782       0.71181625      -0.91283061      -9.34691646 F F F
C        8.61012377      15.63395878       5.04718328      -0.00019391       0.00125042       0.00300066      -0.06357286      -0.59697790      -1.09255896      -9.33012921 F F F
C        9.83986190      16.33508376       4.88564822      -0.00000542       0.00344788       0.00872703       0.00526718      -0.00609094       0.39163528      -9.37037652 F F F
C        9.84001137       0.71000246       4.67932761       0.00000325       0.00057181       0.00112106      -0.00227585       0.04672267       1.54697825      -9.17875904 F F F
C       11.07034718       1.42951680       4.76558505      -0.00018797      -0.00233456       0.00074301       0.11067851      -0.02674566       0.54497189      -9.28849383 F F F
C       11.08495708       2.82975637       5.05297408       0.00106861      -0.00213867       0.00049761      -0.55236296       0.28549787      -1.30421843      -9.34841705 F F F
C       12.31409382       3.55317131       5.07564367       0.00212097       0.00015209       0.00412287      -0.09867906      -0.49493227      -0.18490795      -9.33626506 F F F
C        9.84000155       4.96676103       5.15522431      -0.00002073       0.00279808       0.00352919       0.00254046      -0.03112138       1.55716598      -9.32814204 F F F
C       11.07497784       5.66682727       5.25798965      -0.00056318       0.00049980      -0.00064149      -0.04366055       0.30582457      -0.84897562      -9.32293056 F F F
C       11.08603404       7.09050404       5.25603248      -0.00245966       0.00262787      -0.00746828      -0.94848373       0.22411498       0.67014955      -9.35782387 F F F
C       12.29685608       7.81043450       5.26712905       0.00342429      -0.00218192       0.01833876       0.73116738      -0.34976919      -0.70274112      -9.33749533 F F F
C        9.84003510       9.23354461       5.44282563       0.00002633      -0.00013786      -0.00318991      -0.00258031      -0.07668743      -2.45065314      -9.24301532 F F F
C       11.07026992       9.94728551       5.29818003       0.00179648       0.00075967      -0.00023309       0.37779683       0.04121711       0.58888268      -9.36828871 F F F
C       11.06691367      11.38205666       5.25650105      -0.00038843      -0.00386871      -0.00745970       0.49743772      -0.93004452       0.66491132      -9.36781635 F F F
C       12.30853377      12.08171333       5.25295539       0.00145417      -0.00140861      -0.00120457      -0.09055243      -0.14799106      -0.89693120      -9.31804071 F F F
C        9.83994514      13.50174156       5.16907975      -0.00001439       0.00095916      -0.00148086       0.00333775      -0.32943588       1.56357634      -9.33277590 F F F
C       11.07155992      14.19847637       5.20484038      -0.00019288      -0.00233066      -0.01071884       0.20729182       0.69856764      -0.90609772      -9.34745460 F F F
C       11.06982720      15.63405276       5.04759897       0.00019163       0.00125062       0.00301197       0.06098198      -0.59174655      -1.09780296      -9.32975380 F F F
C       12.29682940      16.32561764       4.85079834       0.00008269       0.00192030       0.00470822       0.23884566       0.08990616       0.31415714      -9.34225798 F F F
C       12.29630534       0.70037095       4.70074103      -0.00019472       0.00021047      -0.00190492       0.28770887       0.27480487       1.09322434      -9.24681520 F F F
C       13.53330092       1.41458265       4.75885823      -0.00003474      -0.00059998      -0.00475894       0.20789322       0.35361693       0.32782080      -9.36626355 F F F
C       13.54183178       2.84484245       4.90984184       0.00188555      -0.00126830       0.00226596      -0.15651862      -0.19744315      -0.05154370      -9.37395398 F F F
C       14.77107785       3.56588940       4.91697495       0.00203922      -0.00119750       0.00876191      -0.17609638      -0.59272294       0.21610494      -9.35235791 F F F
C       12.30340833       4.96443728       5.20872797       0.00016923       0.00096838       0.00397644       0.33111296       0.01927052      -0.28605114      -9.33665616 F F F
C       13.53635999       5.67990202       5.18583031      -0.00093585       0.00304943      -0.01013652       0.30667633      -0.35942160      -0.55586008      -9.36217757 F F F
C       13.54319899       7.08882731       5.14766226       0.00119417      -0.00056765      -0.00251959      -0.52969029       0.45958615       1.61852121      -9.32170085 F F F
C       14.75881960       7.80378303       5.18294091      -0.00342951       0.00064490      -0.01047487       0.56198780       0.09098756      -0.59231648      -9.36532134 F F F
C       12.31125308       9.22190678       5.25452003      -0.00313991       0.00082838      -0.00787445      -0.40666168       0.73244272       0.60482028      -9.37410115 F F F
C       13.54272089       9.94602590       5.24786007       0.00036180       0.00077488      -0.00183565      -0.18397141      -0.11950890      -0.94181169      -9.33373138 F F F
C       13.53550833      11.36926836       5.13495973      -0.00097846      -0.00134646       0.00243536      -0.06035997      -0.21959598       1.64953852      -9.32881445 F F F
C       14.76034815      12.07438653       5.11218664      -0.00061282      -0.00064213      -0.00147396       0.45702828       0.21514287       0.01136310      -9.37899496 F F F
C       12.31856925      13.49620376       5.20837572       0.00181576      -0.00098388       0.00392614      -0.46920135       0.28739056      -0.24078480      -9.34271873 F F F
C       13.54101506      14.20824178       5.07688384       0.00015883       0.00125328       0.00533129      -0.05820570       0.17491719      -0.00501912      -9.34970630 F F F
C       13.53776289      15.62303901       4.90843491      -0.00104037       0.00065127       0.00223891       0.00677099      -0.06839083      -0.02817262      -9.37139623 F F F
C       14.77746906      16.32469376       4.81414637      -0.00018651      -0.00107812      -0.00286932      -0.39378103       0.16175384       0.13268623      -9.35253356 F F F
C       14.77462352       0.70502900       4.77808301       0.00121021      -0.00002258      -0.00726608      -0.19366843       0.10610053       0.09933298      -9.35024795 F F F
C       16.00363919       1.42436120       4.83255418       0.00038593       0.00210155      -0.00759975      -0.17928759      -0.20138939      -0.11528245      -9.37359364 F F F
C       15.99101346       2.84485564       4.81895757       0.00139443       0.00080007      -0.00162360       0.18915786      -0.17103271       0.51525635      -9.32377133 F F F
C       17.22492517       3.54206748       4.83163029      -0.00180831       0.00113112      -0.00424367      -0.02065558       0.12383644       0.32825722      -9.34489528 F F F
C       14.78239772       4.97174412       5.07703943      -0.00010736      -0.00035773       0.00757209      -0.92929837      -0.05074438      -0.84367863      -9.33106218 F F F
C       15.99700781       5.67480626       4.96439609       0.00133274      -0.00083371       0.01441585      -0.01120330       0.00062450       0.40413021      -9.34016711 F F F
C       15.99705563       7.08196493       5.07838025      -0.00017547       0.00058288       0.00741632      -0.41164961       0.70897943      -0.89005639      -9.33581193 F F F
C       17.20210309       7.80436924       4.91911067       0.00141602      -0.00035888       0.00877911       0.62919768       0.17075828       0.20328108      -9.34269079 F F F
C       14.77189267       9.23535746       5.19527007       0.00000235       0.00057171       0.00320594      -0.12382628      -0.38022914      -0.22881948      -9.36137579 F F F
C       15.99925478       9.93969121       5.07206722       0.00008234      -0.00102150       0.00567611      -0.03304029       0.01960001       0.09642841      -9.34614834 F F F
C       16.00097905      11.35950644       5.08017736       0.00072032      -0.00059503       0.00473673      -0.48408716       0.24846767      -1.03608342      -9.34673485 F F F
C       17.20770656      12.07823606       4.88964821       0.00137680       0.00038677       0.00608735       0.35508472      -0.09422953       0.20806241      -9.34034272 F F F
C       14.77380742      13.50723438       5.08009490       0.00032054       0.00048600       0.00491861      -0.30582065      -0.63112434      -1.00013275      -9.34794989 F F F
C       15.98927658      14.20140981       4.88856841       0.00044467       0.00100707       0.00687331       0.09023769       0.11471967       0.35539639      -9.30520980 F F F
C       16.00591051      15.61564297       4.82646054       0.00002824      -0.00001300      -0.00079297      -0.19275032       0.32543865       0.51144622      -9.33713595 F F F
C       17.22947167      16.33260163       4.88355772      -0.00077828      -0.00000538      -0.00411677      -0.08301082       0.21151622      -0.03977432      -9.36260383 F F F
C       17.23484078       0.71100830       4.91231322      -0.00209647      -0.00027370      -0.00480592      -0.38098812      -0.01051162      -0.40196061      -9.38183146 F F F
C       18.45997158       1.41951977       4.96285809      -0.00237445      -0.00070956       0.00020933      -0.43655781       0.08559044      -0.21241026      -9.33262181 F F F
C       18.45077341       2.83195376       4.92765096      -0.00327441       0.00051829      -0.00270021      -0.02653558       0.28150056      -0.25776649      -9.36572497 F F F
C       19.67981719       3.53918096       4.94445740       0.00002030       0.00052678      -0.00292707       0.00879776       0.40948182      -0.53258614      -9.35744053 F F F
C       17.21287461       4.96039687       4.81518584      -0.00137943      -0.00074737       0.00104134       0.36331339       0.15483490       0.85424804      -9.32237051 F F F
C       18.43956878       5.67631192       4.82362402      -0.00237252       0.00044558      -0.00650176       0.44958367       0.01888496       0.03677675      -9.35971473 F F F
C       18.43662271       7.10356133       4.80424752       0.00083073       0.00005905      -0.00384415       0.40271848      -0.19513425       0.32192203      -9.35755290 F F F
C        0.00008426       7.81266836       4.77880127       0.00000161      -0.00009797      -0.00962319      -0.00156338       0.00607388       0.05765279      -9.38431918 F F F
C       17.21948009       9.22586169       4.92639747      -0.00073988      -0.00068076       0.00435279      -0.05104073       0.20330608       0.07997525      -9.35583712 F F F
C       18.44462052       9.94890686       4.81588087      -0.00153953       0.00009862      -0.00272578      -0.02806345      -0.17160096       0.12937619      -9.36413756 F F F
C       18.43941529      11.37360558       4.80839575       0.00092564       0.00067684      -0.00309370       0.32720417      -0.18768346       0.34838809      -9.35238479 F F F
C       19.67994679      12.08056894       4.80767304      -0.00000042       0.00109518      -0.00907930       0.00081905       0.04655264      -0.04006434      -9.37773380 F F F
C       17.21088878      13.49641912       4.82685414      -0.00083114      -0.00003146       0.00255569       0.41436759       0.02748332       0.86439750      -9.31495589 F F F
C       18.44270785      14.21389287       4.86510709      -0.00045508      -0.00112197      -0.00528167       0.32566968      -0.13653328      -0.04575856      -9.39926585 F F F
C       18.46032033      15.63619747       4.92420654      -0.00108707      -0.00127426      -0.00293477      -0.27331906      -0.27789023      -0.25574669      -9.34945872 F F F
C       19.67988527      16.35603879       4.96875454       0.00000507      -0.00189421       0.00034274       0.01003641      -0.69464895      -0.24470284      -9.35832711 F F F
C        0.00007280      17.76479994       4.98292360       0.00001556      -0.00050860       0.00293290       0.00126470      -0.23202922      -0.00652463      -9.32062882 F F F
C        1.22032748      18.46297634       4.96265180       0.00239234      -0.00066119       0.00018068       0.42832645       0.07681444      -0.21130782      -9.33291776 F F F
C        1.22913662      19.87534025       4.92761451       0.00322926       0.00056894      -0.00271810       0.02801113       0.28101491      -0.26080655      -9.36599382 F F F
C        2.45504742      20.58534752       4.83134599       0.00178549       0.00111941      -0.00424197       0.02135537       0.12324162       0.33359087      -9.34514486 F F F
C        0.00013675      22.00797694       4.87931208      -0.00001679       0.00284752      -0.00818969      -0.00804685       0.17434498      -0.59751482      -9.38962175 F F F
C        1.24051163      22.71959852       4.82363190       0.00238367       0.00046940      -0.00650449      -0.45165842       0.02451111       0.03167410      -9.35974332 F F F
C        1.24346651      24.14703401       4.80410472      -0.00083139       0.00006540      -0.00382707      -0.40415082      -0.20293278       0.32130257      -9.35750177 F F F
C        2.47796456      24.84759957       4.91866842      -0.00142246      -0.00035126       0.00878186      -0.63018483       0.17619873       0.20194825      -9.34244605 F F F
C        0.00005487      26.28464437       4.78007926      -0.00001637       0.00025661      -0.00710111       0.00125651      -0.15961045       0.09725188      -9.33836656 F F F
C        1.23553954      26.99237968       4.81561560       0.00154153       0.00009830      -0.00273161       0.02661710      -0.17771153       0.13137534      -9.36434679 F F F
C        1.24042103      28.41701897       4.80851605      -0.00095403       0.00069254      -0.00308339      -0.31978809      -0.18933026       0.34657329      -9.35238537 F F F
C        2.47244215      29.12144416       4.88987605      -0.00137985       0.00037112       0.00607181      -0.36474243      -0.08992436       0.20210815      -9.34014945 F F F
C       19.67993459      30.54824014       4.87171302      -0.00003077      -0.00004538      -0.00866289       0.00324182      -0.12127646      -0.55640768      -9.35229436 F F F
C        1.23717284      31.25736177       4.86525047       0.00048702      -0.00118506      -0.00525928      -0.31529143      -0.14472678      -0.04575588      -9.40004797 F F F
C        1.21983304      32.67965491       4.92436488       0.00110708      -0.00123019      -0.00291118       0.26275538      -0.28367875      -0.25663153      -9.34917862 F F F
C        2.45070293      33.37573705       4.88361541       0.00081251       0.00003969      -0.00413605       0.07464050       0.21903312      -0.04632517      -9.36234825 F F F
C        2.44533223      17.75418676       4.91182801       0.00209704      -0.00028850      -0.00477227       0.37720227      -0.00640965      -0.39853726      -9.38183423 F F F
C        3.67643273      18.46753441       4.83191184      -0.00037890       0.00208527      -0.00758814       0.18056439      -0.20042161      -0.10955284      -9.37334159 F F F
C        3.68906119      19.88803782       4.81928845      -0.00137964       0.00082457      -0.00165735      -0.19477516      -0.16671619       0.50451624      -9.32453713 F F F
C        4.90887758      20.60932524       4.91723385      -0.00205046      -0.00123805       0.00873177       0.17380604      -0.60325428       0.21430665      -9.35188503 F F F
C        2.46701314      22.00370374       4.81472687       0.00138383      -0.00073843       0.00103686      -0.35569705       0.15348870       0.85950141      -9.32180802 F F F
C        3.68289533      22.71809396       4.96414466      -0.00134323      -0.00083830       0.01441928       0.01156772       0.00007563       0.40505261      -9.34004332 F F F
C        3.68292462      24.12524135       5.07770866       0.00017582       0.00055466       0.00745367       0.41159587       0.70574579      -0.88194067      -9.33594010 F F F
C        4.92095053      24.84704008       5.18290760       0.00345667       0.00067523      -0.01043322      -0.55163945       0.08523480      -0.59940523      -9.36498381 F F F
C        2.46076868      26.26911100       4.92590598       0.00075338      -0.00069545       0.00432685       0.04314168       0.20632799       0.08333983      -9.35611018 F F F
C        3.68089614      26.98283197       5.07194065      -0.00007580      -0.00101866       0.00565518       0.02865981       0.02323984       0.09168013      -9.34589407 F F F
C        3.67893831      28.40269966       5.07969927      -0.00069999      -0.00062089       0.00474815       0.49490347       0.24623609      -1.02448251      -9.34743803 F F F
C        4.91968646      29.11759234       5.11234515       0.00056837      -0.00066199      -0.00153062      -0.46071654       0.21749767       0.01233589      -9.37912167 F F F
C        2.46938008      30.53959365       4.82708064       0.00085330      -0.00002226       0.00256023      -0.42799532       0.03400240       0.86277835      -9.31544615 F F F
C        3.69092260      31.24458307       4.88846564      -0.00041480       0.00095646       0.00689684      -0.09557471       0.11307067       0.35848956      -9.30490866 F F F
C        3.67395172      32.65879468       4.82600605      -0.00006462      -0.00005185      -0.00079268       0.19953118       0.32165771       0.51402054      -9.33633571 F F F
C        4.90224086      33.36766949       4.81328953       0.00017860      -0.00110217      -0.00285405       0.40770439       0.16938541       0.13299304      -9.35227777 F F F
C        4.90530811      17.74800859       4.77726468      -0.00121740      -0.00006271      -0.00720061       0.20089929       0.11363206       0.10148922      -9.35032098 F F F
C        6.14676833      18.45803901       4.75843123       0.00005353      -0.00066058      -0.00477500      -0.21400374       0.34181142       0.32154288      -9.36684338 F F F
C        6.13803092      19.88816162       4.90938993      -0.00189549      -0.00119824       0.00226821       0.16321596      -0.19466866      -0.04514207      -9.37425497 F F F
C        7.36597762      20.59665342       5.07533275      -0.00215039       0.00011408       0.00411898       0.09070714      -0.51021667      -0.18326374      -9.33583484 F F F
C        4.89736561      22.01497513       5.07755178       0.00013118      -0.00033973       0.00759584       0.93576290      -0.04593744      -0.85355399      -9.33034065 F F F
C        6.14363775      22.72302605       5.18558402       0.00098190       0.00307780      -0.01014207      -0.30770759      -0.35349992      -0.55126831      -9.36233366 F F F