1060
Lattice="18.81848264 0.0 0.0 0.0 18.81848264 0.0 0.0 0.0 68.81848264" Properties=species:S:1:pos:R:3:map_shift:I:3:n_neighb:I:1:mass:R:1:travel:I:3:damp_mask:I:1:thermostat_region:I:1:avg_ke:R:1:velo:R:3:acc:R:3:avgpos:R:3:oldpos:R:3:force:R:3 energy=-157239.16856604 time=10000.0 cutoff=3.7 nneightol=1.2 pbc="T T T"
C       15.95018138       5.16306153      62.01628383        0        0        0       26    1244.82166164        0        0        0        1        1       0.42923431       0.00476119      -0.01889228      -0.00230993       0.00636257      -0.00659790       0.00896522      -2.93664453       4.65118162      -6.44803547      -3.68452077       4.01222608      -7.58468870       3.79695109      -1.16380721       0.15336952
C        9.47544962      18.50588338       3.38581674       -1        0        0       27    1244.82166164        0        0        0        1        1       0.30336030       0.00706399       0.00262702      -0.02600274       0.01462286       0.00306932      -0.01542598       9.68676738      -0.41839606       3.32188967       9.54355211      -0.62062103       2.87956153       5.76696949      -0.67029511      -4.14896638
C       16.12203850      14.93194310      58.22293015        0        0        0       17    1244.82166164        0        0        1        1        1       0.52971612      -0.01861606       0.00377911       0.00023976      -0.00438513       0.00449909       0.00129217      -2.69631861      -3.85410643      58.06573039      -2.39559230      -4.12485575      58.48106053      -1.64386236      -0.38038141      -0.65503779
C       13.83670681       3.44163143       0.43388060        0        0        0       25    1244.82166164        0        0        0        1        1       0.36608642      -0.00466286      -0.00935328      -0.00660633      -0.00098371      -0.01375843      -0.00138269      -4.87137486       3.17792682       0.55350012      -5.02400734       3.27927018      -1.22619380       3.24610719       0.14071639       1.85365012
C       15.14114691      12.49952065      65.20721589        0        0        0       20    1244.82166164        0        0        1        1        1       0.30319403       0.00406265      -0.00217700       0.00845321      -0.00958085      -0.00022187      -0.00759345      -3.91881581      -6.46768040      65.19218203      -3.44160145      -7.18904520      65.14142269      -3.09030127      -0.81961106       1.11902387
C        0.15145341      15.10556598      58.75405388        0        0        0       22    1244.82166164        0        0        1        1        1       0.31285452      -0.03078340       0.01235212      -0.01826897      -0.00397444       0.00443315       0.00005732       0.20613338      -3.67482552      58.90722745       0.58026542      -3.59329092      59.62808563       4.20251314       4.85417934       1.38016944
C       11.74065536       5.19830745      10.83843132        0        0        0       22    1244.82166164        0        0        0        1        1       0.29834927      -0.00036158      -0.01766014       0.00282025       0.00825602      -0.00696955       0.00481388      -7.17034849       5.35942978      10.87049578      -6.80787393       5.58103562       7.14716189      -1.52339227       2.86583544       1.60167092
C       11.47459650       3.32690027      66.74365032        0        0        0       32    1244.82166164        0        0        1        1        1       0.39931609       0.00112244       0.00686081      -0.00147409       0.00053811      -0.01398835       0.00980198      -7.52252321       3.40338172      66.85058115      -7.19295524       1.84797807      66.89473363      -1.78235881       0.28445963       2.27767418
C       16.82554295       7.30895359      68.76999657        0        0        0       29    1244.82166164        0        0        1        1        1       0.37539835       0.00339581       0.01415230       0.00062418      -0.00422450      -0.00302923       0.00370246      -2.11965642       7.38056788      68.63972318      -1.82384846       5.30606735      67.31161681      -2.39939172      -3.45068097      -1.61542874
C        7.26682912      15.28867350      65.53345217        0        0        0       20    1244.82166164        0        0        1        1        1       0.35488533       0.00400012       0.00099904       0.01214223      -0.00801881       0.00026321       0.00931999       7.15403459      -3.53750310      65.56073655       6.32970385      -3.72157591      65.60953794      -6.55077779      -0.59504861      -0.34068991
C       17.93967919       3.47770191      66.46085917        0        0        0       25    1244.82166164        0        0        0        1        1       0.38794609       0.01477472      -0.00108475       0.00007881      -0.00000717       0.00940309       0.01054880      -0.79951330       3.42980147      -2.23119958      -0.96289704       3.63986237      -3.59276880       3.19198566      -3.81859416       8.20102389
C       11.90701080       4.91423439      68.74651328        0        0        0       31    1244.82166164        1        0        0        1        1       0.40106181      -0.00887162      -0.00097053       0.01071195       0.00040189      -0.00362741       0.00581595      11.77518422       4.46088078       0.22564290      11.80145465       4.02976244       0.11427094      -3.10968829      -5.38959126       1.42636958
C        4.68864580      10.93932222       3.03598161        0        0        0       30    1244.82166164        0        1        0        1        1       0.33256285      -0.01504932      -0.00076228      -0.00894711       0.00290245       0.00766117       0.00068646       5.00444773      10.88207930       2.89885122       5.28476565      10.49965687       1.81864613       5.56174857       1.79477132      -1.94816589
C        0.16342808       3.10182150       0.40793030        0        0        0       22    1244.82166164        0        0        0        1        1       0.37626183       0.01324023      -0.01885830      -0.00314722      -0.00415503      -0.02351896       0.00194851       0.13795888       2.90069713       0.38464513      -0.17811006       2.03505740      -0.91457267      -1.59794172      -5.41802795      -0.71931868
C        4.70830714       4.42753644      66.80807043        0        0        0       24    1244.82166164        0        0        0        1        1       0.30771072       0.01240179      -0.00718465      -0.01229754       0.00629419      -0.00967095      -0.00562252       4.69065272       4.33847360      -2.14343150       5.32988556       3.18782725      -1.95136665       4.10327349      -3.19413798     -10.74766571
C       14.71929574       7.87191524      58.50929600        0        0        0       21    1244.82166164        0       -1        1        1        1       0.33982207      -0.02024440      -0.01621227      -0.00950680       0.01009319       0.00485572      -0.00212391      -3.96800479     -10.93079594      58.53539166      -4.50858669     -10.11999142      59.83366101       4.17364329      -0.28401280       0.22485852
C        6.47111305       0.64484189       5.23319249        0        0        0       25    1244.82166164        0        0        0        1        1       0.36635575      -0.01280462      -0.01024716      -0.01150777       0.00046872       0.01067203      -0.01428353       6.54461890       0.92563569       5.01428606       6.28103320      -0.76331938       4.51706532       2.53564558       4.64250977       2.34894817
C        7.17119499       2.78447471      60.93163917        0        0        0       26    1244.82166164        0        0        1        1        1       0.34105462      -0.00565562      -0.01873397      -0.00905555      -0.00959390      -0.00944318      -0.00825547       7.09704611       2.82022462      61.06414465       7.21780925       1.83325406      61.82698420      -3.20381101      -1.29070365       2.21601606
C        3.62951623       1.16427551      64.32465075        0        0        0       26    1244.82166164        0        0        1        1        1       0.30396134       0.02229637       0.00060788      -0.00424613       0.00387832       0.00874662      -0.00797391       3.75096731       1.23754387      64.37037348       3.76802073       0.01981111      64.09717870      -0.80101294       3.74018997       0.88326786
C       17.18327190       6.57526113      63.72394203        0        0        0       28    1244.82166164        0        0        1        1        1       0.33531544      -0.00304050       0.03899621       0.00745895       0.00130931       0.00849953       0.00668817      -1.66174280       6.32466303      63.98116716      -0.51174996       7.16261525      64.30072255      -0.09286740      -2.42154253       4.04935757
C        1.26845976       3.83647065       5.98573851        0        0        0       24    1244.82166164        0        0        0        1        1       0.29117875      -0.00557396       0.01573976      -0.01297237      -0.00498298      -0.00435955       0.01149142       1.28251302       3.87838115       6.10397363       1.03893126       3.22230109       4.84681072       0.42727837       0.52894569       0.16780044
C        0.55644610       4.46209295       0.34736219        0        0        0       28    1244.82166164        0        0        0        1        1       0.35357505      -0.01129697      -0.00254717       0.01983346       0.01225986      -0.01027346       0.01861070       0.65388475       4.32318382       0.38591300       0.24625889       4.98076772      -0.04088566       3.67182627      -2.43070059       4.15612788
C       16.82618240       9.37318268       2.97408287        0        0        0       27    1244.82166164        0        0        0        1        1       0.37553583      -0.01324940       0.01649976      -0.00092394       0.00164115       0.00167585      -0.00807639      -1.81405398       9.15839769       3.01987999      -1.63226592       8.70002687       3.15924977       1.00329714      -3.63884182      -1.50450425
C       10.65080089       9.89809079       7.37317804        0        0        0       31    1244.82166164        0        1        0        1        1       0.32346098       0.00653925      -0.01067932       0.00169615      -0.00277014       0.00074704      -0.00088354      -8.20392254       9.80928198       6.89374118      -7.45253545      10.49758756       5.57550974       2.41251225       1.13624340      -4.08350130
C       17.49364538       3.13920623      60.00990430        0        0        0       20    1244.82166164        0        0        1        1        1       0.38914613       0.00508737       0.01372943       0.00406767       0.00126843       0.01075999      -0.00244333      -1.35330963       3.06275600      59.81333312      -0.98730418       2.01447642      59.25667124       4.14085997      -1.43454142      -1.10962580
C       17.93147066       2.04954922       8.72718374        0        0        0       25    1244.82166164        0        0        0        1        1       0.36446678       0.01351597      -0.01160155       0.00511674       0.00986928       0.00239366       0.01026231      -1.00499255       2.15250003       8.79980957      -2.43362157       1.56232685       8.40298726       2.49024472       6.47571825       1.61196603
C        0.56271525       1.88922404       8.86057636        0        0        0       21    1244.82166164        0        0        0        1        1       0.53331572       0.00863148      -0.01945046       0.00465819       0.00000279      -0.00960654       0.00020129       0.43769518       1.86979448       8.83195511      -0.16889315       2.55993614       7.86185860      -0.35061042      -2.80730092       0.39753161
C       15.00780572       2.02035671      60.23871489        0        0        0       21    1244.82166164        0        0        1        1        1       0.27602485      -0.00425946       0.01055579      -0.01041386       0.00516840      -0.00193338       0.00281365      -3.79303554       1.83360905      60.37261340      -3.57333507       1.03696695      59.53077121      -1.31055324      -1.81345287       0.02450910
C       17.04705616      14.33935544      66.87701563        0        0        0       26    1244.82166164        0        0        1        1        1       0.36403905       0.01717450      -0.01649528       0.01017427       0.01069649      -0.00315621      -0.00000244      -1.65148754      -4.47230559      66.95038041      -0.84033257      -5.03720142      66.88386707       1.66735333      -0.83088359       3.13219509
C       17.42832126      18.69079160       1.53212164        0        0        0       26    1244.82166164        0        0        1        1        1       0.38737878       0.01490874       0.00081009      -0.00128338      -0.00462868       0.00589155       0.00516647      -1.39366125      -0.19082975      70.31989307      -2.16019261       0.03827911      70.60189366       0.71868528       2.26617236      -2.63558700
C       15.44096163       6.09640707       9.06880038        0        0        0       23    1244.82166164        0        0       -1        1        1       0.39958539      -0.01604860      -0.01761687       0.00527779      -0.00789504       0.00129657       0.00433939      -3.49013474       6.39206388     -59.64427418      -3.26691291       6.35114790     -60.83557594      -6.68526468       3.72496418       1.19886329
C        2.65077698       4.75927174       5.43544493        0        0        0       21    1244.82166164        0        0        0        1        1       0.39885168       0.00201274       0.00375522      -0.00263916      -0.00386763      -0.00144452       0.00283284       2.43301349       4.73264738       5.58594342       2.07214553       4.20097151       5.37137168      -4.59754905       1.57340752      -1.52728563
C       15.07068240      11.96486280       7.86739164        0        0        0       26    1244.82166164        0        1        0        1        1       0.38336534      -0.02001214       0.00021523      -0.01448197      -0.00749343      -0.00268032       0.00933792      -3.72641160      12.06569030       7.98994545      -3.66132596      12.08711491       6.87115726       3.88542490      -0.28693161       3.86330428
C       15.09283613       9.55543122      66.43196830        0       -1        0       23    1244.82166164        0        0        0        1        1       0.39432121      -0.00035395      -0.00411155       0.01159622       0.00063079       0.01192943      -0.01009126      -3.65792878       9.72510044      -2.32179493      -3.06818658       8.20579271      -1.18438071       5.42539848       1.57741610      -0.21903960
C       13.47400022       9.17026770       5.50390945        0        1        0       28    1244.82166164        0        1        0        1        1       0.37679053       0.00506962      -0.01243782      -0.02209557       0.01005310       0.00170731      -0.00294908      -5.21628505       8.91429860       5.46611925      -5.52084372       9.09403704       3.87902231       4.49489432      -5.07757309      -0.61641924
C        6.62046531      13.74899032       3.26115558        0        0        0       23    1244.82166164        0        1        1        1        1       0.45579461       0.02294470      -0.01217865       0.00956296       0.00531422      -0.00303123      -0.00643787       6.66079490      14.02672447      71.93653828       7.12928153      13.92873146      71.62753543       1.09437953       3.51534648      -0.24508810
C       11.36988690       6.23811712       7.91560069        0        0        0       30    1244.82166164        1        0        0        1        1       0.45167895       0.01537963      -0.00245726       0.01732907       0.01053143       0.00474525       0.00108420      11.24100247       6.27853015       7.88997743      10.32462512       5.66799200       5.14181603      -2.73900361      -1.26825857      -1.12784286
C        1.12106313      12.13721979      10.12067943        0        0        0       19    1244.82166164        0        1        0        1        1       0.41942421      -0.01073673       0.02517044      -0.01529952      -0.01343416       0.00383951       0.00810266       1.08304148      12.21311682      10.15899381      -0.19658185      10.99295743      10.39022738       3.58128128       1.65151027       1.49564959
C        0.00547473      11.23414625      66.74131136        0        0        0       27    1244.82166164        0        1        1        1        1       0.40054014       0.00525849      -0.00311849      -0.00283107      -0.00485315      -0.00687096       0.00820715      -0.12599411      10.88755494      66.67693097       1.08631173      10.64044197      66.34983027      -0.65817133      -6.54678190      -1.71655649
C       12.10442037       1.06461785      64.53057282        0        0        0       25    1244.82166164        0        0        1        1        1       0.26378917       0.01422108      -0.00032768       0.01702102       0.00213134       0.00527924      -0.00253315      -6.76500422       1.21237758      64.43112851      -6.79146925       0.08817592      64.20076433      -0.53589888       4.76531770      -4.05082136
C        2.56801370      12.44760789      66.62563026        0        0        0       25    1244.82166164        0        1        0        1        1       0.46189092      -0.01081175      -0.00057892      -0.00759441      -0.00683828      -0.00886678      -0.00316988       2.33274232      12.82223102      -2.19509472       1.94999717      12.83137329      -1.04916277      -1.23549064       0.69274831      -0.92341995
C        9.65541612       7.45439567       4.75111549        0        0        0       25    1244.82166164        0        0        0        1        1       0.40210079       0.00166449       0.01442986      -0.00283652      -0.01166409       0.00067915       0.00217403      -8.65280578       6.93843306       5.16311688      -7.38993951       6.65374426       4.77605811      -6.53376903      -4.85499376       0.82147426
C       16.98029599       7.78516936       7.13845132        0        0        0       24    1244.82166164        0        0        0        1        1       0.33408359       0.00811352      -0.00834995      -0.00150913       0.01115833       0.00214965       0.00043937      -1.77349370       7.86528250       7.15951180      -2.75305191       8.43150833       6.86558367       1.66273833       1.60647251      -2.70094050
C        4.83660654      16.44073278       2.00253860        0        0        0       29    1244.82166164        0        0        0        1        1       0.35240905      -0.01739619      -0.01437412       0.01667170      -0.00406908       0.00863867       0.00720989       4.79810577      -2.30499206       1.93647244       4.64909866      -2.62688740       1.18717022      -1.48969604       4.00384233       2.03047050
C        1.82956159       8.47241644       3.85779081        0        0        0       26    1244.82166164        0        0        0        1        1       0.42501163      -0.01855279      -0.02269968      -0.04719048      -0.00654603      -0.00048182      -0.01310706       1.83245586       8.48218712       3.80665184       1.51042847       6.97803238       3.40757020      -0.63989120       2.17013896      -1.49365371
C        5.06900979       1.93397077      59.42888522        0        0        0       21    1244.82166164       -1        0        1        1        1       0.45612665       0.02416035       0.00381954       0.00481988      -0.00511305       0.01259385       0.00647488     -13.73030386       1.88932288      59.66822242     -13.28333509      -0.74131281      59.24242714      -3.10938550      -0.86969715       2.33650069
C       16.83058994       6.28380731       6.65672420        0        0        0       26    1244.82166164        0        0        0        1        1       0.34978065       0.02362471       0.01615425      -0.00336798       0.01091050       0.00178695       0.00486852      -1.76673103       6.12573733       6.88041974      -2.21919918       4.82701667       6.04123543       4.46768596       1.17042909       0.47101149
C       15.85298036       5.28869580      65.78880657        0        0        0       27    1244.82166164        0        0        1        1        1       0.34451104      -0.01725201       0.00496468       0.02013693      -0.00315129       0.00244396      -0.00770391      -3.03022904       5.31480945      65.76099085      -4.11434410       4.82401066      65.55848517       3.48331196      -1.20101768      -2.80727244
C       17.48055505      10.75933456       8.75335041        0        0        0       21    1244.82166164        0        1        0        1        1       0.46038814       0.01996236      -0.00924163      -0.00635377       0.01138952      -0.00400912      -0.00380327      -1.62071795      10.56604783       8.97124636      -2.49965991       9.92036086       6.63295727      -1.27000443      -3.78260840      -3.67110360
C       17.42584921      12.99039949      66.19352329        0        0        0       24    1244.82166164        0        1        1        1        1       0.42640002       0.00510638       0.03728608      -0.00543262      -0.00470379      -0.00117749      -0.00161976      -1.35807957      12.97388613      66.05092124      -3.84621208      11.03235910      67.54074878       1.66685272       2.91802834      -3.13972327
C       18.66716764      16.20677828      65.50787291        0        0        0       27    1244.82166164        0        1        0        1        1       0.37894317      -0.02041485      -0.00514242       0.00662215      -0.00876149       0.00048523      -0.00103450      -0.13958017      16.22708051      -3.26322077       0.06752542      15.90711088      -2.54401958      -1.06631947       2.36223171       3.28209022
C        4.85508307       8.42485347       0.95804046        0        0        0       32    1244.82166164        0        0        0        1        1       0.29938797      -0.01612577      -0.01811935      -0.00194641       0.00028354      -0.00560425      -0.00296687       5.10497025       8.48789790       0.90606220       4.94202137       7.37971486       0.00494565       3.75753383      -3.52449929      -1.84578915
C       11.25616072       9.95273913       1.96179558        0       -1        0       22    1244.82166164        0        0        0        1        1       0.41698785      -0.01905646      -0.01148945       0.02715357      -0.00426978       0.00440597       0.01223412      -7.92166602       9.96875692       1.83492038      -7.97059617       9.05380232       0.80331152      -4.87445682       2.46242400       0.31421900
C       17.53187089       8.38824807       5.64826224        0        0        0       24    1244.82166164        0        0        0        1        1       0.37199458      -0.01391906       0.01552401      -0.01523179       0.00369442       0.00309865      -0.00622273      -1.14197629       8.32840900       5.89206019      -2.62971144       7.49046109       5.66684862      -1.20411903      -1.89604497       4.35658247
C        0.24106623       4.95547713      60.04031176        0        0        0       26    1244.82166164        0        0        1        1        1       0.40185965      -0.00721461       0.01113418       0.00732672      -0.00575910      -0.00833278       0.00152704       0.24839303       4.76843214      60.11509097       0.63850211       3.86552272      59.60164860      -0.48114829      -5.47555620       1.29968409
C        8.79344295      13.05902442       7.70080002        1        0        0       24    1244.82166164        0        1        0        1        1       0.35070670       0.00381876      -0.00589696       0.00505017      -0.00428218      -0.01364727       0.00440824     -10.25725866      13.12337831       7.67233495      -8.93221598      12.90692447       4.39259607      -3.23117354      -0.43021752       1.61312277
C        0.99108469      12.63710127       6.53812885        0        0        0       20    1244.82166164        0        1        0        1        1       0.44123554       0.00355140      -0.00575292      -0.00469096       0.00024044      -0.00553696       0.00867176       0.97513144      12.72696404       6.80161205       1.29470482      11.96870524       6.16121224      -0.08441973      -2.37811889       2.80826707
C       18.47577724      13.50409748      64.86434218        0        0        0       25    1244.82166164        0        1        1        1        1       0.35456607       0.01864161      -0.02576378       0.00621653      -0.00705288      -0.00818757      -0.00036784      -0.53616584      13.32758745      64.79295116      -0.41407735      13.76507050      65.37595152      -1.87594188      -2.45908426       0.09881794
C        1.95111693       5.27709230      63.82572222        0        0        0       19    1244.82166164        0        0        1        1        1       0.33001518      -0.00846143      -0.02139754       0.00750968      -0.00646731       0.00228395      -0.00321419       2.07145765       5.08189119      64.00098519       2.27220089       4.58842824      63.95322089      -4.08018815      -4.00866102      -0.29005642
C        6.39476644       7.62338190      66.63093830        0        0        0       27    1244.82166164        0        0        1        1        1       0.28053650      -0.01744275       0.02258765      -0.00469514      -0.00283184      -0.00133946      -0.00763793       6.44682332       7.58543369      66.65248470       7.22277568       8.41340332      65.62508921       1.07821926      -0.25311039      -0.25846386
C       17.05284202      14.86404416       8.85054904        0        0        0       21    1244.82166164        0        1        0        1        1       0.40632450      -0.01131744       0.01936052      -0.00434828       0.00855394       0.00178610       0.00106299      -1.63923603      14.91936368       8.79873757      -1.53313617      14.38103189       9.29372159       0.38554108       4.76456866      -4.18370447
C       12.20570131      14.64460959       1.52189399        0        0        0       29    1244.82166164        0        1        0        1        1       0.37475308      -0.02567350      -0.00110484       0.00488558      -0.00439832       0.00508973       0.00311364      -6.64587873      14.71707207       1.41175454      -7.18105826      14.25075631       0.67033337       0.78116946       7.53241976       0.62983695
C       16.79718131      10.52770382       0.95462830        0        0        0       27    1244.82166164        0        1        0        1        1       0.28391214       0.02100088      -0.01358731      -0.00487995      -0.00653411       0.00918481      -0.00703541      -2.16753898      10.61684633       1.10360471      -1.67136646      10.60947379       0.07641960      -4.06366915       3.38113216      -0.60629956
C       14.12078461       5.82626318       9.68021957        0        0        0       23    1244.82166164        0        0        0        1        1       0.26481418      -0.00431433       0.00243418       0.01030101       0.01220283      -0.00019901      -0.00104332      -4.65615424       5.95809572       9.85571337      -3.73350762       5.19784219       8.92563890       5.04700345      -4.93517551       0.83652135
C       17.85987957       5.52487463      60.58349431        0        0        0       22    1244.82166164        0        0        1        1        1       0.37041329       0.01051284      -0.00462409      -0.00617370      -0.01007867       0.00591492       0.00487518      -0.81334111       5.58938453      60.32168229      -0.51143909       4.72785421      59.53402296      -1.55894881       4.07899923       1.30710479
C       14.88910877      13.89923343      64.93459617        0        0        0       20    1244.82166164        0        1        1        1        1       0.31549710      -0.00392066      -0.00651867      -0.00179003      -0.00943528      -0.00194743      -0.00076773      -4.14555958      13.80028698      64.94604901      -3.90724441      13.00140606      65.28192871       0.64992496       1.03258415       0.25101230
C        7.01644007      16.35005653       1.54676196        0        0        0       26    1244.82166164        0        1        0        1        1       0.32185307       0.01006848       0.00151777      -0.00725525       0.01495179       0.00502677      -0.00997736       7.09569887      16.37353506       1.47957891       7.40706881      15.99270352       1.17914022       3.91848948       1.57815984      -1.50749070
C        7.45421519      12.91762595      61.87159724        0        0        0       22    1244.82166164        0        1        1        1        1       0.38887816      -0.00403025      -0.00715409       0.01108721       0.00467571      -0.00557318       0.00748436       7.31355326      12.85892608      61.92164023       7.46475330      12.42460861      62.13498198       0.15530291       1.86126700       0.84186892
C        2.00541659       9.15279980       9.33907218        0        0        0       15    1244.82166164        0        0        0        1        1       0.27681294       0.01001553      -0.00276868       0.01228193       0.00475594       0.00108069       0.01129151       1.89879407       9.34631595       9.26029833       2.02151920       8.69600163       7.80433399       1.02001507       0.87959996      -1.37841163