17
Lattice="24.9485351 0.0 0.0 0.0 24.350013699999998 0.0 0.0 0.0 24.0796789" Properties=species:S:1:pos:R:3 CC_energy=-0.0629 pbc="T T T"
C       13.86747920      12.21129940      10.00002140
C       13.20229780      10.98660660      10.00000000
C       11.80908170      10.95030040      10.00002140
C       11.08105730      12.13871090      10.00000000
C       11.74622330      13.36342440      10.00002140
C       13.13942910      13.39970680      10.00000000
H       14.94853510      12.23945650      10.00157770
H       13.76722020      10.06446720      10.00156160
H       11.29293850      10.00000000      10.00157770
H       10.00000000      12.11054340      10.00156160
H       11.18131060      14.28556770      10.00157770
H       13.65556400      14.35001370      10.00156160
C       12.47426140      12.17500810      13.71592120
H       13.06113900      13.01318230      14.07967890
H       11.45494250      12.26417190      14.07967890
H       12.47426140      12.17500810      12.62997140
H       12.90670270      11.24767010      14.07967870
12
Lattice="24.9485351 0.0 0.0 0.0 24.350013699999998 0.0 0.0 0.0 20.0015777" Properties=species:S:1:pos:R:3 pbc="T T T"
C       13.86747920      12.21129940      10.00002140
C       13.20229780      10.98660660      10.00000000
C       11.80908170      10.95030040      10.00002140
C       11.08105730      12.13871090      10.00000000
C       11.74622330      13.36342440      10.00002140
C       13.13942910      13.39970680      10.00000000
H       14.94853510      12.23945650      10.00157770
H       13.76722020      10.06446720      10.00156160
H       11.29293850      10.00000000      10.00157770
H       10.00000000      12.11054340      10.00156160
H       11.18131060      14.28556770      10.00157770
H       13.65556400      14.35001370      10.00156160
5
Lattice="21.6061965 0.0 0.0 0.0 21.7655122 0.0 0.0 0.0 21.449707500000002" Properties=species:S:1:pos:R:3 pbc="T T T"
C       11.01931890      10.92733800      11.08594980
H       11.60619650      11.76551220      11.44970750
H       10.00000000      11.01650180      11.44970750
H       11.01931890      10.92733800      10.00000000
H       11.45176020      10.00000000      11.44970730
24
Lattice="26.6060844 0.0 0.0 0.0 24.5838098 0.0 0.0 0.0 24.2875954" Properties=species:S:1:pos:R:3 CC_energy=-0.1136 pbc="T T T"
C       12.25521700      10.87023130      12.14379770
C       11.84853880      11.43645900      13.35000250
C       11.84853880      11.43645900      10.93759290
C       11.03624520      12.56906590      13.35075160
C       10.63156410      13.13692600      12.14379770
C       11.03624520      12.56906590      10.93684380
H       12.16918880      10.99984560      10.00148270
H       10.72054790      13.00821150      10.00000000
H       10.00000000      14.01517490      12.14379770
H       10.72054790      13.00821150      14.28759540
H       12.16918880      10.99984560      14.28611270
H       12.89701690      10.00000000      12.14379770
C       14.35086740      13.71357850      12.14379770
C       14.75754560      13.14735080      10.93759290
C       14.75754560      13.14735080      13.35000250
C       15.56983920      12.01474390      10.93684380
C       15.97452030      11.44688380      12.14379770
C       15.56983920      12.01474390      13.35075160
H       13.70906750      14.58380980      12.14379770
H       14.43689560      13.58396420      14.28611270
H       15.88553650      11.57559830      14.28759540
H       16.60608440      10.56863490      12.14379770
H       15.88553650      11.57559830      10.00000000
H       14.43689560      13.58396420      10.00148270
12
Lattice="22.8970169 0.0 0.0 0.0 24.015174899999998 0.0 0.0 0.0 24.2875954" Properties=species:S:1:pos:R:3 pbc="T T T"
C       12.25521700      10.87023130      12.14379770
C       11.84853880      11.43645900      13.35000250
C       11.84853880      11.43645900      10.93759290
C       11.03624520      12.56906590      13.35075160
C       10.63156410      13.13692600      12.14379770
C       11.03624520      12.56906590      10.93684380
H       12.16918880      10.99984560      10.00148270
H       10.72054790      13.00821150      10.00000000
H       10.00000000      14.01517490      12.14379770
H       10.72054790      13.00821150      14.28759540
H       12.16918880      10.99984560      14.28611270
H       12.89701690      10.00000000      12.14379770
12
Lattice="22.8970169 0.0 0.0 0.0 24.015174899999998 0.0 0.0 0.0 24.2875954" Properties=species:S:1:pos:R:3 pbc="T T T"
C       10.64179990      13.14494360      12.14379770
C       11.04847810      12.57871590      10.93759290
C       11.04847810      12.57871590      13.35000250
C       11.86077170      11.44610900      10.93684380
C       12.26545280      10.87824890      12.14379770
C       11.86077170      11.44610900      13.35075160
H       10.00000000      14.01517490      12.14379770
H       10.72782810      13.01532930      14.28611270
H       12.17646900      11.00696340      14.28759540
H       12.89701690      10.00000000      12.14379770
H       12.17646900      11.00696340      10.00000000
H       10.72782810      13.01532930      10.00148270
24
Lattice="24.950799 0.0 0.0 0.0 24.2871314 0.0 0.0 0.0 27.3847776" Properties=species:S:1:pos:R:3 CC_energy=-0.1175 pbc="T T T"
C       12.47539950      12.14356570      13.51366300
C       12.47539950      10.93755730      14.21230190
C       12.47539950      10.93638900      15.60621820
C       12.47539950      12.14356570      16.30320280
C       12.47539950      13.35074240      15.60621820
C       12.47539950      13.34957410      14.21230190
H       12.47539950      12.14356570      12.43304720
H       12.47539950      10.00192700      13.66904940
H       12.47539950      10.00000000      16.14762300
H       12.47539950      12.14356570      17.38477760
H       12.47539950      14.28713140      16.14762300
H       12.47539950      14.28520440      13.66904940
C       11.08133620      12.14356570      10.00047530
C       11.77835270      13.35080350      10.00000000
C       13.17244630      13.35080350      10.00000000
C       13.86946280      12.14356570      10.00047530
C       13.17244630      10.93632790      10.00000000
C       11.77835270      10.93632790      10.00000000
H       10.00000000      12.14356570      10.00430560
H       11.23716740      14.28713120      10.00095130
H       13.71363160      14.28713120      10.00095130
H       14.95079900      12.14356570      10.00430560
H       13.71363160      10.00000020      10.00095130
H       11.23716740      10.00000020      10.00095130
12
Lattice="20.0 0.0 0.0 0.0 24.2871314 0.0 0.0 0.0 24.951730400000002" Properties=species:S:1:pos:R:3 pbc="T T T"
C       10.00000000      12.14356570      11.08061580
C       10.00000000      10.93755730      11.77925470
C       10.00000000      10.93638900      13.17317100
C       10.00000000      12.14356570      13.87015560
C       10.00000000      13.35074240      13.17317100
C       10.00000000      13.34957410      11.77925470
H       10.00000000      12.14356570      10.00000000
H       10.00000000      10.00192700      11.23600220
H       10.00000000      10.00000000      13.71457580
H       10.00000000      12.14356570      14.95173040
H       10.00000000      14.28713140      13.71457580
H       10.00000000      14.28520440      11.23600220
12
Lattice="24.950799 0.0 0.0 0.0 24.287131 0.0 0.0 0.0 20.0043056" Properties=species:S:1:pos:R:3 pbc="T T T"
C       11.08133620      12.14356550      10.00047530
C       11.77835270      13.35080330      10.00000000
C       13.17244630      13.35080330      10.00000000
C       13.86946280      12.14356550      10.00047530
C       13.17244630      10.93632770      10.00000000
C       11.77835270      10.93632770      10.00000000
H       10.00000000      12.14356550      10.00430560
H       11.23716740      14.28713100      10.00095130
H       13.71363160      14.28713100      10.00095130
H       14.95079900      12.14356550      10.00430560
H       13.71363160      10.00000000      10.00095130
H       11.23716740      10.00000000      10.00095130
12
Lattice="21.744844 0.0 0.0 0.0 21.744844 0.0 0.0 0.0 25.566616" Properties=species:S:1:pos:R:3 CC_energy=-0.065 pbc="T T T"
C       10.40049700      10.40049700      10.92419700
C       11.34434700      11.34434700      10.92419700
H       10.00000000      10.00000000      11.84718300
H       11.74484400      11.74484400      11.84718300
H       10.00195800      10.00195800      10.00000000
H       11.74288600      11.74288600      10.00000000
C       10.40049700      11.34434700      14.64241900
C       11.34434700      10.40049700      14.64241900
H       10.00000000      11.74484400      13.71943300
H       11.74484400      10.00000000      13.71943300
H       10.00195800      11.74288600      15.56661600
H       11.74288600      10.00195800      15.56661600
6
Lattice="21.744844 0.0 0.0 0.0 21.744844 0.0 0.0 0.0 21.847183" Properties=species:S:1:pos:R:3 pbc="T T T"
C       10.40049700      10.40049700      10.92419700
C       11.34434700      11.34434700      10.92419700
H       10.00000000      10.00000000      11.84718300
H       11.74484400      11.74484400      11.84718300
H       10.00195800      10.00195800      10.00000000
H       11.74288600      11.74288600      10.00000000
6
Lattice="21.744844 0.0 0.0 0.0 21.744844 0.0 0.0 0.0 21.847183" Properties=species:S:1:pos:R:3 pbc="T T T"
C       10.40049700      11.34434700      10.92298600
C       11.34434700      10.40049700      10.92298600
H       10.00000000      11.74484400      10.00000000
H       11.74484400      10.00000000      10.00000000
H       10.00195800      11.74288600      11.84718300
H       11.74288600      10.00195800      11.84718300
10
Lattice="21.847242 0.0 0.0 0.0 22.464506 0.0 0.0 0.0 26.090114" Properties=species:S:1:pos:R:3 CC_energy=-0.0655 pbc="T T T"
C       10.92362100      10.56467500      10.00152600
C       10.92362100      11.89983100      10.00152600
H       11.84724200      10.00000000      10.00000000
H       10.00000000      10.00000000      10.00000000
H       10.00000000      12.46450600      10.00000000
H       11.84724200      12.46450600      10.00000000
C       10.92362100      11.23225300      15.02668800
C       10.92362100      11.23225300      13.81942500
H       10.92362100      11.23225300      12.75353700
H       10.92362100      11.23225300      16.09011400
6
Lattice="21.847242 0.0 0.0 0.0 22.464506 0.0 0.0 0.0 20.001526" Properties=species:S:1:pos:R:3 pbc="T T T"
C       10.92362100      10.56467500      10.00152600
C       10.92362100      11.89983100      10.00152600
H       11.84724200      10.00000000      10.00000000
H       10.00000000      10.00000000      10.00000000
H       10.00000000      12.46450600      10.00000000
H       11.84724200      12.46450600      10.00000000
4
Lattice="20.0 0.0 0.0 0.0 20.0 0.0 0.0 0.0 23.336577" Properties=species:S:1:pos:R:3 pbc="T T T"
C       10.00000000      10.00000000      12.27315100
C       10.00000000      10.00000000      11.06588800
H       10.00000000      10.00000000      10.00000000
H       10.00000000      10.00000000      13.33657700
10
Lattice="21.777102 0.0 0.0 0.0 22.052678 0.0 0.0 0.0 25.896568000000002" Properties=species:S:1:pos:R:3 CC_energy=-0.023 pbc="T T T"
C       10.88855100      11.02619900      14.80744500
H       10.00000000      11.53939900      14.44296900
H       11.77710200      11.53939900      14.44296900
H       10.88855100      10.00000000      14.44315200
H       10.88855100      11.02642800      15.89656800
C       10.88855100      11.02647900      11.08912300
H       10.88855100      11.02625000      10.00000000
H       10.00000000      10.51327900      11.45359900
H       11.77710200      10.51327900      11.45359900
H       10.88855100      12.05267800      11.45341600
5
Lattice="21.777102 0.0 0.0 0.0 21.539399 0.0 0.0 0.0 21.453599" Properties=species:S:1:pos:R:3 pbc="T T T"
C       10.88855100      11.02619900      10.36447600
H       10.00000000      11.53939900      10.00000000
H       11.77710200      11.53939900      10.00000000
H       10.88855100      10.00000000      10.00018300
H       10.88855100      11.02642800      11.45359900
5
Lattice="21.777102 0.0 0.0 0.0 21.539399 0.0 0.0 0.0 21.453599" Properties=species:S:1:pos:R:3 pbc="T T T"
C       10.88855100      10.51320000      11.08912300
H       10.88855100      10.51297100      10.00000000
H       10.00000000      10.00000000      11.45359900
H       11.77710200      10.00000000      11.45359900
H       10.88855100      11.53939900      11.45341600
