2
Lattice="200.0 0.0 0.0 0.0 200.0 0.0 0.0 0.0 200.0" Properties=species:S:1:pos:R:3:frac_pos:R:3:force:R:3 fix_occupancy=F castep_run_time=25.46 xc_functional="L D A" cut_off_energy="6 5 0   e V" max_scf_cycles=200 calculate_stress=T castep_file_name="2 0 . c a s t e p" nneightol=1.2 detailed_ct="d i m e r" mix_charge_amp=0.15 virNOTUSED="-7.99683872 0.0 -0.0 0.0 0.00014043 -0.0 -0.0 -0.0 0.00014043" popn_calculate=F smearing_width="0 . 1   e V" finite_basis_corr="a u t o m a t i c" spin_polarized=F mix_history_length=20 mixing_scheme="P u l a y" config_type="c l u s t e r" opt_strategy="s p e e d" energy=-298.923429 write_checkpoint="n o n e" nextra_bands=8 elec_energy_tol=1e-08 kpoints_mp_grid="1 1 1" pdos_calculate_weights=F task="S i n g l e P o i n t" cutoff=-1.0 pbc="T T T"
C        0.00000000       0.00000000       0.00000000       0.00000000       0.00000000       0.00000000       2.96210319      -0.00000000       0.00000000
C        2.40000000       0.00000000       0.00000000       0.27000000       0.00000000       0.00000000      -2.96210319       0.00000000      -0.00000000
