240
Lattice="13.999999999999996 0.0 0.0 0.0 13.999999999999996 0.0 0.0 0.0 13.999999999999996" Properties=species:S:1:pos:R:3:vel:R:3 md_step=1000 time=100.0 pbc="T T T"
C       -3.14900685      -1.55815957       0.51752541      -0.00001906      -0.00000170      -0.00000114
C       -2.27502982      -2.36858831       1.35113248      -0.00001770       0.00001271       0.00000387
C       -3.43280768      -0.24065863       0.87855347      -0.00001170      -0.00001590       0.00001150
C       -1.72046947      -1.82812844       2.51161978      -0.00003114       0.00001270       0.00002060
C       -0.33067044      -2.09657065       2.84623070      -0.00005148       0.00004965       0.00002756
C       -1.46351104      -3.20050092       0.47621686      -0.00001370       0.00001681      -0.00000235
C       -0.13049223      -3.45818644       0.79738161      -0.00001086       0.00003693      -0.00000157
C        0.44764850      -2.89450374       2.00716308      -0.00004433       0.00004358       0.00002202
C       -3.19701174       0.48422682      -1.46859910       0.00001142      -0.00002717      -0.00000328
C       -2.90133188      -0.88941361      -1.84501647       0.00001060      -0.00001289       0.00000217
C       -3.45741594       0.80201133      -0.13527991      -0.00000942      -0.00002804       0.00002359
C       -2.87787825      -1.88950705      -0.87261546       0.00001091      -0.00000174       0.00000356
C       -1.83600981      -2.90435081      -0.89817784      -0.00000424       0.00001165      -0.00000782
C       -1.88380121      -0.86184244      -2.88407798       0.00001572      -0.00003150      -0.00002965
C       -0.88466431      -1.83534095      -2.90880109       0.00001057      -0.00000219      -0.00002398
C       -0.86023238      -2.87807817      -1.89506645       0.00001706       0.00001750      -0.00001815
C       -2.09387574       2.85056300      -0.32566004      -0.00001652      -0.00004306       0.00002117
C       -1.82233394       2.51904586      -1.71568634       0.00002008      -0.00004350      -0.00001206
C       -2.89444437       2.00982084       0.44816471      -0.00001978      -0.00004021       0.00004008
C       -2.36235618       1.36070447      -2.27520237       0.00002239      -0.00004254      -0.00002689
C       -1.55083998       0.52880057      -3.15000528       0.00002601      -0.00004903      -0.00003619
C       -0.44764923       2.89450516      -2.00715983       0.00004440      -0.00004359      -0.00002198
C        0.33066555       2.09656741      -2.84622894       0.00005159      -0.00004982      -0.00002774
C       -0.23238325       0.88905725      -3.42970055       0.00003881      -0.00004211      -0.00003545
C       -1.36417223       2.27031002       2.36708144      -0.00002963      -0.00003993       0.00003500
C       -0.52961774       3.14701495       1.56031921      -0.00003604      -0.00004849       0.00002560
C       -2.52194108       1.71362090       1.82268053      -0.00002545      -0.00004274       0.00004041
C       -0.88690278       3.43105654       0.24192801      -0.00002675      -0.00004348       0.00002324
C        0.13049081       3.45819257      -0.79737948       0.00001098      -0.00003692       0.00000160
C        0.86023304       2.87807475       1.89506812      -0.00001736      -0.00001771       0.00001808
C        1.83600506       2.90434696       0.89817293       0.00000411      -0.00001182       0.00000775
C        1.46350889       3.20050135      -0.47622081       0.00001379      -0.00001694       0.00000237
C       -2.01635795      -0.45457457       2.88814004      -0.00002019      -0.00000821       0.00002869
C       -0.80935640       0.12579968       3.45559088      -0.00002418       0.00000597       0.00003045
C       -2.85484728       0.32277399       2.08868161      -0.00001954      -0.00003181       0.00003734
C       -0.49003499       1.45977475       3.20059286      -0.00002334      -0.00001842       0.00002954
C        0.88466558       1.83534136       2.90880710      -0.00001070       0.00000212       0.00002393
C        0.23238135      -0.88905883       3.42969694      -0.00003872       0.00004184       0.00003529
C        1.55083726      -0.52879633       3.14999985      -0.00002588       0.00004875       0.00003601
C        1.88380334       0.86184543       2.88407615      -0.00001564       0.00003127       0.00002965
C        3.14900342       1.55815977      -0.51753644       0.00001927       0.00000147       0.00000117
C        2.87787592       1.88950760       0.87260528      -0.00001081       0.00000151      -0.00000350
C        2.90133186       0.88941936       1.84501084      -0.00001042       0.00001275      -0.00000202
C        3.43281060       0.24065937      -0.87856271       0.00001176       0.00001590      -0.00001151
C        2.01635333       0.45456670      -2.88814088       0.00001999       0.00000839      -0.00002892
C        1.72046456       1.82812281      -2.51162440       0.00003114      -0.00001282      -0.00002078
C        2.27502422       2.36858751      -1.35113998       0.00001783      -0.00001292      -0.00000395
C        2.85484659      -0.32278159      -2.08868529       0.00001937       0.00003214      -0.00003764
C        1.36417382      -2.27031541      -2.36707193       0.00002947       0.00004029      -0.00003504
C        0.49003646      -1.45978030      -3.20058556       0.00002316       0.00001859      -0.00002955
C        0.80935247      -0.12580567      -3.45558956       0.00002401      -0.00000585      -0.00003061
C        2.52194528      -1.71362829      -1.82267423       0.00002533       0.00004323      -0.00004056
C        2.09387925      -2.85055767       0.32566891       0.00001648       0.00004321      -0.00002095
C        0.88690585      -3.43105331      -0.24191972       0.00002666       0.00004356      -0.00002308
C        0.52961828      -3.14701711      -1.56031072       0.00003583       0.00004864      -0.00002563
C        2.89445191      -2.00981939      -0.44815688       0.00001982       0.00004049      -0.00003991
C        3.19701558      -0.48421911       1.46859621      -0.00001126       0.00002721       0.00000366
C        2.36235877      -1.36069686       2.27520113      -0.00002226       0.00004253       0.00002709
C        1.82233403      -2.51903979       1.71569218      -0.00002000       0.00004359       0.00001218
C        3.45742463      -0.80200512       0.13527793       0.00000959       0.00002809      -0.00002328
C       -2.88311451       8.88777449       6.14215612      -0.00001906      -0.00000170      -0.00000114
C       -1.84300063       9.90415570       6.11639456      -0.00001770       0.00001271       0.00000387
C       -2.90852541       7.89058807       5.16662220      -0.00001170      -0.00001590       0.00001150
C       -0.87071576       9.88153036       5.11613706      -0.00003114       0.00001270       0.00002060
C        0.51964667      10.15067099       5.44783369      -0.00005148       0.00004965       0.00002756
C       -1.46629000      10.19705596       7.49059149      -0.00001370       0.00001681      -0.00000235
C       -0.13266939      10.45548751       7.80864332      -0.00001086       0.00003693      -0.00000157
C        0.88096043      10.43166128       6.76579002      -0.00004433       0.00004358       0.00002202
C       -3.45640863       6.19421038       6.87317151       0.00001142      -0.00002717      -0.00000328
C       -3.43011626       7.23390310       7.89020267       0.00001060      -0.00001289       0.00000217
C       -3.20125480       6.51554025       5.53968695      -0.00000942      -0.00002804       0.00002359
C       -3.14949154       8.55280012       7.53234638       0.00001091      -0.00000174       0.00000356
C       -2.27367928       9.36179142       8.36573531      -0.00000424       0.00001165      -0.00000782
C       -2.84668491       6.66819830       9.09658718       0.00001572      -0.00003150      -0.00002965
C       -2.00689090       7.44416651       9.89608981       0.00001057      -0.00000219      -0.00002398
C       -1.71436636       8.81924624       9.52307386       0.00001706       0.00001750      -0.00001815
C       -1.82466119       4.48317032       5.28178599      -0.00001652      -0.00004306       0.00002117
C       -2.09062713       4.14836299       6.67210174       0.00002008      -0.00004350      -0.00001206
C       -2.36844132       5.64224178       4.72733241      -0.00001978      -0.00004021       0.00004008
C       -2.88942053       4.98591727       7.45111965       0.00002239      -0.00004254      -0.00002689
C       -2.51267177       5.27885930       8.82521867       0.00002601      -0.00004903      -0.00003619
C       -0.88095983       3.56833894       7.23420641       0.00004440      -0.00004359      -0.00002198
C       -0.51965088       3.84933309       8.55216455       0.00005159      -0.00004982      -0.00002774
C       -1.35252053       4.72235833       9.36438307       0.00003881      -0.00004211      -0.00003545
C       -0.24290699       6.11967268       3.56716327      -0.00002963      -0.00003993       0.00003500
C        0.32395003       4.91111509       4.14510765      -0.00003604      -0.00004849       0.00002560
C       -1.56100927       6.47760357       3.85211186      -0.00002545      -0.00004274       0.00004041
C       -0.45051059       4.10991947       4.98462175      -0.00002675      -0.00004348       0.00002324
C        0.13266934       3.54450805       6.19135173       0.00001098      -0.00003692       0.00000160
C        1.71436727       5.18075750       4.47692650      -0.00001736      -0.00001771       0.00001808
C        2.27367280       4.63821029       5.63426876       0.00000411      -0.00001182       0.00000775
C        1.46628664       3.80294210       6.50941082       0.00001379      -0.00001694       0.00000237
C       -0.89717349       8.84197781       4.09898504      -0.00002019      -0.00000821       0.00002869
C        0.47694519       8.46877126       3.80199657      -0.00002418       0.00000597       0.00003045
C       -1.89496234       7.86715271       4.12352807      -0.00001954      -0.00003181       0.00003734
C        0.79731337       7.13609381       3.54158401      -0.00002334      -0.00001842       0.00002954
C        2.00689424       6.55583565       4.10390549      -0.00001070       0.00000212       0.00002393
C        1.35251734       9.27764166       4.63561994      -0.00003872       0.00004184       0.00003529
C        2.51266767       8.72113476       5.17478300      -0.00002588       0.00004875       0.00003601
C        2.84668650       7.33179806       4.90341378      -0.00001564       0.00003127       0.00002965
C        2.88310744       5.11222080       7.85785170       0.00001927       0.00000147       0.00000117
C        3.14948582       5.44719513       6.46766098      -0.00001081       0.00000151      -0.00000350
C        3.43011474       6.76608928       6.10979946      -0.00001042       0.00001275      -0.00000202
C        2.90852493       6.10940698       8.83338615       0.00001176       0.00001590      -0.00001151
C        0.89716823       5.15802925       9.90101746       0.00001999       0.00000839      -0.00002892
C        0.87070908       4.11847308       8.88386749       0.00003114      -0.00001282      -0.00002078
C        1.84299270       4.09584220       7.88361002       0.00001783      -0.00001292      -0.00000395
C        1.89495976       6.13285254       9.87647806       0.00001937       0.00003214      -0.00003764
C        0.24291138       7.88033618      10.43283178       0.00002947       0.00004029      -0.00003504
C       -0.79730989       6.86391422      10.45841290       0.00002316       0.00001859      -0.00002955
C       -0.47694890       5.53123501      10.19800357       0.00002401      -0.00000585      -0.00003061
C        1.56101478       7.52240545      10.14788765       0.00002533       0.00004323      -0.00004056
C        1.82466804       9.51682850       8.71820558       0.00001648       0.00004321      -0.00002095
C        0.45051664       9.89008100       9.01537106       0.00002666       0.00004356      -0.00002308
C       -0.32394671       9.08889051       9.85488647       0.00003583       0.00004864      -0.00002563
C        2.36845123       8.35775972       9.27266315       0.00001982       0.00004049      -0.00003991
C        3.45641184       7.80578112       7.12682886      -0.00001126       0.00002721       0.00000366
C        2.88942315       9.01407516       6.54887896      -0.00002226       0.00004253       0.00002709
C        2.09062979       9.85163412       7.32789081      -0.00002000       0.00004359       0.00001218
C        3.20126273       7.48445260       8.46031503       0.00000959       0.00002809      -0.00002328
C        8.82674444      -2.52009331       5.29000807      -0.00001906      -0.00000170      -0.00000114
C        7.45296667      -2.89597638       4.99508796      -0.00001770       0.00001271       0.00000387
C        9.36862807      -1.36221725       4.73110014      -0.00001170      -0.00001590       0.00001150
C        6.67726118      -2.09834377       4.15340628      -0.00003114       0.00001270       0.00002060
C        5.28687355      -1.82930828       4.48508259      -0.00005148       0.00004965       0.00002756
C        6.87123921      -3.45854060       6.20390281      -0.00001370       0.00001681      -0.00000235
C        5.53748328      -3.20067371       6.52184548      -0.00001086       0.00003693      -0.00000157
C        4.72890182      -2.36890389       5.64439970      -0.00004433       0.00004358       0.00002202
C       10.45726719      -0.80220713       6.87386409       0.00001142      -0.00002717      -0.00000328
C        9.89247293      -2.00949698       7.45649887       0.00001060      -0.00001289       0.00000217
C       10.20106884      -0.48523572       5.53953694      -0.00000942      -0.00002804       0.00002359
C        9.09416258      -2.85072347       6.68103817       0.00001091      -0.00000174       0.00000356
C        7.88552677      -3.43049002       7.24594643      -0.00000424       0.00001165      -0.00000782
C        9.51581785      -1.71239581       8.82968476       0.00001572      -0.00003150      -0.00002965
C        8.35674686      -2.26866024       9.37163442       0.00001057      -0.00000219      -0.00002398
C        7.52447134      -3.14577508       8.56321449       0.00001706       0.00001750      -0.00001815
C        9.88051692       1.88889192       6.13351913      -0.00001652      -0.00004306       0.00002117
C       10.14748335       1.55825931       7.52464195       0.00002008      -0.00004350      -0.00001206
C        9.90672497       0.88831372       5.16155274      -0.00001978      -0.00004021       0.00004008
C       10.42984707       0.24093072       7.88706860       0.00002239      -0.00004254      -0.00002689
C        9.84807548      -0.32161677       9.09578068       0.00002601      -0.00004903      -0.00003619
C        9.27109785       2.36890523       8.35559694       0.00004440      -0.00004359      -0.00002198
C        8.71312858       1.82930368       9.51491398       0.00005159      -0.00004982      -0.00002774
C        9.00765385       0.45600360       9.89286319       0.00003881      -0.00004211      -0.00003545
C        7.89337958       1.83387035       4.09188369      -0.00002963      -0.00003993       0.00003500
C        7.86619288       2.87717081       5.10516699      -0.00003604      -0.00004849       0.00002560
C        8.89236305       0.86022856       4.11940690      -0.00002545      -0.00004274       0.00004041
C        8.83910686       2.90405258       6.10476860      -0.00002675      -0.00004348       0.00002324
C        8.46251913       3.20067911       7.47815148       0.00001098      -0.00003692       0.00000160
C        6.47552617       3.14577226       5.43678460      -0.00001736      -0.00001771       0.00001808
C        6.11447795       3.43048434       6.75405620       0.00000411      -0.00001182       0.00000775
C        7.12876445       3.45853992       7.79609975       0.00001379      -0.00001694       0.00000237
C        7.24215232      -0.89119953       3.57059539      -0.00002019      -0.00000821       0.00002869
C        6.20073657       0.12384847       3.54199029      -0.00002418       0.00000597       0.00003045
C        8.55995561      -0.53071478       3.85328629      -0.00001954      -0.00003181       0.00003734
C        6.51947360       1.45793651       3.79712836      -0.00002334      -0.00001842       0.00002954
C        5.64324961       2.26866158       4.62836072      -0.00001070       0.00000212       0.00002393
C        4.99234875      -0.45600605       4.10713935      -0.00003872       0.00004184       0.00003529
C        4.15193065       0.32161930       4.90422263      -0.00002588       0.00004875       0.00003601
C        4.48418225       1.71239918       5.17031755      -0.00001564       0.00003127       0.00002965
C        5.17326329       2.52009135       8.71000028       0.00001927       0.00000147       0.00000117
C        4.90584399       2.85072229       7.31896987      -0.00001081       0.00000151      -0.00000350
C        4.10753158       2.00950186       6.54350567      -0.00001042       0.00001275      -0.00000202
C        4.63137382       1.36221819       9.26890935       0.00001176       0.00001590      -0.00001151
C        6.75784909       0.89119050      10.42940400       0.00001999       0.00000839      -0.00002892
C        7.32274291       2.09833640       9.84659618       0.00003114      -0.00001282      -0.00002078
C        6.54704096       2.89597302       9.00491637       0.00001783      -0.00001292      -0.00000395
C        5.44004388       0.53070714      10.14671735       0.00001937       0.00003214      -0.00003764
C        6.10661303      -1.83387401       9.90810894       0.00002947       0.00004029      -0.00003504
C        7.48052004      -1.45794054      10.20286622       0.00002316       0.00001859      -0.00002955
C        7.79926400      -0.12385532      10.45800732       0.00002401      -0.00000585      -0.00003061
C        5.10762811      -0.86023343       9.88058993       0.00002533       0.00004323      -0.00004056
C        4.11947818      -1.88888497       7.86647402       0.00001648       0.00004321      -0.00002095
C        5.16088812      -2.90404778       7.89522505       0.00002666       0.00004356      -0.00002308
C        6.13380219      -2.87717192       8.89482583       0.00003583       0.00004864      -0.00002563
C        4.09326588      -0.88830905       8.83844343       0.00001982       0.00004049      -0.00003991
C        3.54273362       0.80221543       7.12613953      -0.00001126       0.00002721       0.00000366
C        3.57015403      -0.24092282       6.11293301      -0.00002226       0.00004253       0.00002709
C        3.85251617      -1.55825313       6.47535236      -0.00002000       0.00004359       0.00001218
C        3.79892703       0.48524440       8.46046811       0.00000959       0.00002809      -0.00002328
C        9.09263678       9.84970822      -0.33462263      -0.00001906      -0.00000170      -0.00000114
C        7.88499586      10.43154377       0.22982589      -0.00001770       0.00001271       0.00000387
C        9.89291034       9.01214669       0.44303141      -0.00001170      -0.00001590       0.00001150
C        7.52701489      10.15174569       1.54888900      -0.00003114       0.00001270       0.00002060
C        6.13719066       9.88340862       1.88347959      -0.00005148       0.00004965       0.00002756
C        6.86846024      10.45509564      -0.81047182      -0.00001370       0.00001681      -0.00000235
C        5.53530612      10.19797478      -0.48941623      -0.00001086       0.00003693      -0.00000157
C        5.16221374       9.90606143       0.88577277      -0.00004433       0.00004358       0.00002202
C       10.19787030       7.48064433      -1.46790652       0.00001142      -0.00002717      -0.00000328
C        9.36368855       8.35398648      -2.27872027       0.00001060      -0.00001289       0.00000217
C       10.45722997       7.80278729      -0.13542992      -0.00000942      -0.00002804       0.00002359
C        8.82254929       9.51401654      -1.72392366       0.00001091      -0.00000174       0.00000356
C        7.44785730       9.88793063      -2.01796671      -0.00000424       0.00001165      -0.00000782
C        8.55293414       7.51875166      -3.15098039       0.00001572      -0.00003150      -0.00002965
C        7.23452027       7.87748580      -3.43325648       0.00001057      -0.00000219      -0.00002398
C        6.67033737       9.08694314      -2.85492582       0.00001706       0.00001750      -0.00001815
C       10.14973147       5.44484140       0.52607309      -0.00001652      -0.00004306       0.00002117
C        9.87919016       5.10914954      -0.86314613       0.00002008      -0.00004350      -0.00001206
C       10.43272802       6.76374890       0.88238504      -0.00001978      -0.00004021       0.00004008
C        9.90278272       6.10569102      -1.83925343       0.00002239      -0.00004254      -0.00002689
C        8.88624369       6.12927664      -2.87944327       0.00002601      -0.00004903      -0.00003619
C        8.83778725       4.09393887      -0.88576929       0.00004440      -0.00004359      -0.00002198
C        7.86281214       4.11659681      -1.88347951       0.00005159      -0.00004982      -0.00002774
C        7.88751657       5.15541198      -2.90122044       0.00003881      -0.00004211      -0.00003545
C        9.01464482       6.55611235       2.89180186      -0.00002963      -0.00003993       0.00003500
C        8.71976066       5.18095923       2.52037856      -0.00003604      -0.00004849       0.00002560
C        9.85329486       7.33099591       2.08997557      -0.00002545      -0.00004274       0.00004041
C        9.27549906       4.63692344       1.36207485      -0.00002675      -0.00004348       0.00002324
C        8.46469766       3.80202152       0.48942026       0.00001098      -0.00003692       0.00000160
C        7.32966040       4.91305999       2.85492622      -0.00001736      -0.00001771       0.00001808
C        6.55214568       4.11207291       2.01796037       0.00000411      -0.00001182       0.00000775
C        7.13154220       3.54490354       0.81046812       0.00001379      -0.00001694       0.00000237
C        8.36133677       9.27860277       2.35975039      -0.00002019      -0.00000821       0.00002869
C        7.48703816       8.47072247       3.19558459      -0.00002418       0.00000597       0.00003045
C        9.51984054       8.72064148       1.81843983      -0.00001954      -0.00003181       0.00003734
C        7.80682196       7.13793205       3.45613720      -0.00002334      -0.00001842       0.00002954
C        6.76547827       6.12251543       3.43326233      -0.00001070       0.00000212       0.00002393
C        6.11248475       8.84458888       2.90121635      -0.00003872       0.00004184       0.00003529
C        5.11376107       7.87071913       2.87943947      -0.00002588       0.00004875       0.00003601
C        5.44706541       6.48124430       3.15097993      -0.00001564       0.00003127       0.00002965
C        4.90736731       4.15028922       0.33461214       0.00001927       0.00000147       0.00000117
C        5.17745390       4.48598044       1.72391417      -0.00001081       0.00000151      -0.00000350
C        4.63631446       5.64600678       2.27871705      -0.00001042       0.00001275      -0.00000202
C        4.10708815       4.98784816      -0.44303951       0.00001176       0.00001590      -0.00001151
C        5.63866399       4.72140546      -2.35975434       0.00001999       0.00000839      -0.00002892
C        6.47298743       3.84825949      -1.54889571       0.00003114      -0.00001282      -0.00002078
C        6.11500944       3.56845669      -0.22983363       0.00001783      -0.00001292      -0.00000395
C        4.48015705       5.27936381      -1.81844600       0.00001937       0.00003214      -0.00003764
C        4.98535059       7.44389478      -2.89179477       0.00002947       0.00004029      -0.00003504
C        6.19317369       6.86207447      -3.45613223       0.00002316       0.00001859      -0.00002955
C        6.51296263       5.52928466      -3.19558582       0.00002401      -0.00000585      -0.00003061
C        4.14669761       6.66901058      -2.08997195       0.00002533       0.00004323      -0.00004056
C        3.85026698       8.55515580      -0.52606265       0.00001648       0.00004321      -0.00002095
C        4.72449891       9.36307547      -1.36206572       0.00002666       0.00004356      -0.00002308
C        5.28023719       8.81904531      -2.52037137       0.00003583       0.00004864      -0.00002563
C        3.56726520       7.23624937      -0.88237660       0.00001982       0.00004049      -0.00003991
C        3.80212988       6.51934659       1.46790687      -0.00001126       0.00002721       0.00000366
C        4.09721841       7.89430111       1.83925517      -0.00002226       0.00004253       0.00002709
C        4.12081192       8.89084746       0.86315372      -0.00002000       0.00004359       0.00001218
C        3.54276513       6.19720308       0.13543101       0.00000959       0.00002809      -0.00002328
