612
Lattice="41.501811483704266 0.0 0.0 0.0 19.85176638937344 0.0 0.0 0.0 38.05583616842889" Properties=species:S:1:pos:R:3:Forces:R:3:c_1:R:1:Energy_per_atom:R:1:NN_Energy_per_atom:R:1 pbc="T T T"
C       39.69500000      10.00000000       2.77064000       0.00003896       0.00000000      -0.00000524    -158.22000000       0.32600000       0.19775000
C        1.03721000      10.00000000      36.65030000      -0.00003972       0.00000000       0.00004055    -158.17600000       0.11400000       0.15700000
C        1.14264000      10.00000000       2.96726000      -0.00011338       0.00000000      -0.00002930    -157.50100000       0.36100000       0.16775000
C       38.35530000      10.00000000       3.18289000      -0.00002660       0.00000000      -0.00000573    -158.21100000       0.14900000       0.23800000
C        3.37321000      10.00000000       1.41873000      -0.00001142       0.00000000       0.00000272    -158.03200000       0.07500000       0.13025000
C        1.04195000      10.00000000       5.33442000       0.00000062       0.00000000       0.00007303    -156.72800000       0.32500000       0.16550000
C        3.14514000      10.00000000       7.28723000      -0.00000229       0.00000000       0.00000099    -157.84100000       0.51600000       0.31850000
C        2.38972000      10.00000000       4.97027000      -0.00005580       0.00000000       0.00008415    -157.71900000       0.10400000       0.22125000
C       39.77940000      10.00000000       6.44012000      -0.00002071       0.00000000      -0.00001046    -157.93700000       0.31600000       0.26650000
C       40.93550000      10.00000000       7.23530000       0.00002702       0.00000000      -0.00004979    -158.08500000       0.25400000       0.19800000
C       37.97980000      10.00000000      11.04450000      -0.00004171       0.00000000       0.00001031    -157.89500000       0.42600000       0.43350000
C       37.37970000      10.00000000      12.29350000       0.00000222       0.00000000       0.00000288    -157.46800000       0.81200000       0.37825000
C       40.59150000      10.00000000      12.80530000       0.00000287       0.00000000       0.00004190    -157.72400000       0.54900000       0.37450000
C        1.26686000      10.00000000      11.76220000       0.00005512       0.00000000      -0.00003113    -157.86000000       0.41900000       0.36900000
C       40.59450000      10.00000000      16.30810000      -0.00001628       0.00000000       0.00001497    -157.91400000       0.37600000       0.30100000
C       38.27670000      10.00000000      15.96160000       0.00003019       0.00000000       0.00000828    -157.52500000       0.75900000       0.42100000
C       35.91750000      10.00000000      16.78320000       0.00004609       0.00000000       0.00001287    -157.94500000       0.33300000       0.29625000
C       36.98110000      10.00000000      19.46700000       0.00003406       0.00000000      -0.00004376    -158.18800000       0.09200000       0.20225000
C       37.66420000      10.00000000      18.27040000       0.00004387       0.00000000      -0.00000506    -157.93000000       0.35000000       0.26675000
C       35.78760000      10.00000000      24.01860000       0.00001256       0.00000000      -0.00000336    -157.75700000       0.53100000       0.25025000
C       39.08450000      10.00000000      20.64750000      -0.00001687       0.00000000       0.00002554    -157.98400000       0.30300000       0.32500000
C       36.96250000      10.00000000      23.21660000      -0.00000171       0.00000000       0.00000694    -158.18500000       0.09600000       0.26625000
C       38.18880000      10.00000000      25.22020000      -0.00000233       0.00000000      -0.00001387    -158.13200000       0.14700000       0.18575000
C       35.76480000      10.00000000      25.48900000       0.00000696       0.00000000      -0.00002608    -157.89100000       0.38800000       0.38175000
C       37.47020000      10.00000000      27.36100000       0.00003826       0.00000000      -0.00002253    -158.08300000       0.20200000       0.19325000
C       38.88700000      10.00000000      27.34990000       0.00001207       0.00000000      -0.00002951    -158.22600000       0.05600000       0.21600000
C       40.52320000      10.00000000      24.09070000       0.00000726       0.00000000       0.00000567    -157.89600000       0.39500000       0.31925000
C       39.39000000      10.00000000      28.62460000      -0.00000601       0.00000000      -0.00002884    -157.83500000       0.41600000       0.26925000
C       40.55390000      10.00000000      31.21900000      -0.00004298       0.00000000      -0.00002899    -157.91100000       0.34400000       0.21100000
C        2.28720000      10.00000000      29.55400000      -0.00000342       0.00000000      -0.00001881    -158.12600000       0.15900000       0.26500000
C       41.40240000      10.00000000      32.33330000      -0.00001489       0.00000000      -0.00002100    -158.19700000       0.08600000       0.20525000
C       39.22190000      10.00000000      33.04170000      -0.00003270       0.00000000       0.00000092    -157.99900000       0.28100000       0.26150000
C       41.14260000      10.00000000      34.69380000      -0.00006168       0.00000000       0.00002674    -157.81900000       0.40100000       0.29250000
C        0.97538800      10.00000000       1.55977000      -0.00003756       0.00000000      -0.00001014    -157.85700000       0.21300000       0.22650000
C       41.27110000      10.00000000       0.84569100      -0.00005212       0.00000000       0.00002146    -158.25700000       0.22700000       0.21125000
C       41.40010000      10.00000000      37.49300000      -0.00002620       0.00000000      -0.00002426    -158.15400000       0.14400000       0.17575000
C       40.20460000      10.00000000      36.87000000       0.00009454       0.00000000       0.00007979    -158.00600000       0.21800000       0.19525000
C       40.46210000      10.00000000       3.97502000      -0.00003312       0.00000000       0.00000328    -157.65600000       0.05500000       0.18300000
C       37.19570000      10.00000000       2.42077000       0.00003053       0.00000000       0.00000403    -157.88500000       0.37600000       0.28550000
C       37.15060000      10.00000000       5.25244000       0.00001265       0.00000000       0.00004682    -158.06400000       0.26500000       0.24925000
C       38.31510000      10.00000000       4.53473000       0.00000872       0.00000000      -0.00000354    -158.15100000       0.10100000       0.20725000
C       39.59240000      10.00000000       5.07201000      -0.00000433       0.00000000      -0.00001905    -157.41500000       0.31400000       0.19650000
C       34.72890000      10.00000000       2.86278000      -0.00004187       0.00000000      -0.00004875    -158.08200000       0.21000000       0.36500000
C       37.30680000      10.00000000       6.59337000       0.00002700       0.00000000      -0.00008483    -158.06200000       0.29200000       0.25425000
C       38.58050000      10.00000000       7.10593000      -0.00000806       0.00000000      -0.00007690    -158.04400000       0.18200000       0.23875000
C        0.72477700      10.00000000       6.69879000       0.00002491       0.00000000      -0.00009374    -158.12700000       0.19600000       0.20500000
C       38.48820000      10.00000000       8.44972000       0.00002147       0.00000000       0.00007332    -158.19000000       0.16500000       0.18025000
C       39.30520000      10.00000000      10.63270000      -0.00001018       0.00000000      -0.00008418    -158.02000000       0.27600000       0.27400000
C       39.56630000      10.00000000       9.25177000      -0.00001594       0.00000000      -0.00001292    -158.17200000       0.11100000       0.14450000
C       39.91810000      10.00000000      14.05080000       0.00001854       0.00000000      -0.00001307    -157.89000000       0.42500000       0.40500000
C       37.46030000      10.00000000      13.71850000      -0.00000773       0.00000000      -0.00000019    -158.10600000       0.16700000       0.44650000
C       33.99270000      10.00000000      13.14280000       0.00003072       0.00000000       0.00000172    -157.87900000       0.42200000       0.29625000
C       33.85500000      10.00000000      17.80310000      -0.00000474       0.00000000      -0.00001867    -158.12800000       0.16200000       0.22150000
C       33.30090000      10.00000000      16.55620000      -0.00001286       0.00000000       0.00000558    -158.12100000       0.16500000       0.35125000
C       35.17720000      10.00000000      17.97140000       0.00000525       0.00000000      -0.00001667    -158.08500000       0.19200000       0.19225000
C       35.61470000      10.00000000      19.30150000      -0.00000401       0.00000000      -0.00000469    -158.19900000       0.08200000       0.15650000
C       34.71970000      10.00000000      20.40940000      -0.00001452       0.00000000       0.00000980    -158.02600000       0.26000000       0.22875000
C       36.75080000      10.00000000      21.82500000      -0.00000346       0.00000000       0.00000350    -158.04600000       0.24300000       0.21900000
C       35.34180000      10.00000000      21.66880000       0.00000268       0.00000000      -0.00001060    -158.02900000       0.25200000       0.18525000
C       34.55590000      10.00000000      27.96240000       0.00000145       0.00000000       0.00000178    -157.90200000       0.40100000       0.27325000
C       34.80930000      10.00000000      23.00100000       0.00000734       0.00000000      -0.00000927    -158.29500000      -0.01400000       0.23575000
C       35.58510000      10.00000000      28.99020000       0.00001791       0.00000000       0.00001537    -158.08100000       0.20800000       0.31225000
C       35.40360000      10.00000000      30.41620000      -0.00000527       0.00000000      -0.00002987    -157.96900000       0.33600000       0.24475000
C       36.99180000      10.00000000      28.64460000       0.00002186       0.00000000       0.00000911    -157.96800000       0.30400000       0.26375000
C       37.97890000      10.00000000      30.88740000       0.00004979       0.00000000       0.00001483    -158.01800000       0.24200000       0.28575000
C       38.18650000      10.00000000      29.48560000      -0.00001876       0.00000000       0.00001013    -157.96400000       0.34100000       0.32575000
C       38.70870000      10.00000000      35.19790000      -0.00007542       0.00000000      -0.00006429    -158.01300000       0.24300000       0.25025000
C       36.56970000      10.00000000      31.33000000       0.00000126       0.00000000      -0.00000366    -157.91100000       0.37000000       0.26125000
C       36.72420000      10.00000000      33.89720000       0.00001007       0.00000000       0.00000828    -157.96800000       0.30700000       0.29525000
C       38.74940000      10.00000000       0.66925300      -0.00000175       0.00000000       0.00007832    -158.09800000       0.24200000       0.25425000
C       40.05960000      10.00000000      35.51500000       0.00001838       0.00000000      -0.00014116    -158.01300000       0.22400000       0.27150000
C       39.97270000      10.00000000       1.43185000      -0.00006433       0.00000000      -0.00004376    -158.14700000       0.26100000       0.26400000
C       31.34410000      10.00000000       4.70551000      -0.00000154       0.00000000      -0.00001472    -158.12000000       0.17100000       0.18450000
C       37.37270000      10.00000000       0.99796700      -0.00005969       0.00000000      -0.00007635    -157.94300000       0.31900000       0.32775000
C       36.04200000      10.00000000       3.23181000      -0.00006369       0.00000000      -0.00000526    -158.03800000       0.29800000       0.30575000
C       34.40550000      10.00000000       1.57588000       0.00002959       0.00000000       0.00009417    -157.78700000       0.46100000       0.32200000
C       32.31950000      10.00000000       3.69118000      -0.00003479       0.00000000      -0.00004185    -158.10000000       0.18400000       0.32575000
C       33.74000000      10.00000000       3.90857000      -0.00001833       0.00000000       0.00001929    -157.79500000       0.49100000       0.24250000
C       34.97970000      10.00000000       7.56390000       0.00000930       0.00000000      -0.00004926    -158.08400000       0.17600000       0.21175000
C       34.09420000      10.00000000       8.68229000       0.00000076       0.00000000       0.00000982    -158.06400000       0.23000000       0.19000000
C       34.17580000      10.00000000       6.36397000       0.00001718       0.00000000      -0.00004140    -158.14000000       0.16300000       0.15225000
C       36.87240000      10.00000000      10.09650000      -0.00004182       0.00000000       0.00003310    -158.07600000       0.22000000       0.35675000
C       37.13820000      10.00000000       8.79452000       0.00000922       0.00000000      -0.00007791    -158.07600000       0.26300000       0.23150000
C       38.56140000      10.00000000      14.55360000       0.00001760       0.00000000      -0.00001427    -157.94900000       0.35000000       0.42525000
C       34.11040000      10.00000000      15.48960000       0.00003568       0.00000000       0.00000362    -157.99600000       0.28500000       0.24925000
C       40.98660000      10.00000000      14.98490000      -0.00000504       0.00000000      -0.00002082    -157.98100000       0.29600000       0.31400000
C       35.49120000      10.00000000      15.47580000      -0.00003134       0.00000000      -0.00001531    -157.95000000       0.32200000       0.34925000
C       31.81550000      10.00000000      12.90750000      -0.00003490       0.00000000      -0.00000012    -158.00300000       0.27800000       0.30875000
C       31.90210000      10.00000000      16.60920000       0.00003317       0.00000000       0.00000129    -157.49800000       0.79300000       0.44900000
C       33.41020000      10.00000000      14.37090000      -0.00002515       0.00000000      -0.00000192    -158.06200000       0.22500000       0.32725000
C       27.08130000      10.00000000      17.34920000       0.00000279       0.00000000       0.00000590    -157.74800000       0.53400000       0.34750000
C       30.91580000      10.00000000      20.29160000       0.00002944       0.00000000      -0.00000920    -157.80200000       0.49300000       0.30975000
C       33.30840000      10.00000000      20.09810000       0.00001512       0.00000000      -0.00001857    -157.96400000       0.32100000       0.29725000
C       30.63490000      10.00000000      18.84040000       0.00003830       0.00000000      -0.00001641    -157.90900000       0.37900000       0.41250000
C       32.20350000      10.00000000      20.97860000       0.00002709       0.00000000      -0.00003326    -158.04700000       0.24100000       0.36600000
C       37.06330000      10.00000000      26.03160000      -0.00001631       0.00000000      -0.00001153    -158.06700000       0.21100000       0.23700000
C       33.10700000      10.00000000      28.23490000       0.00003941       0.00000000      -0.00000975    -158.18600000       0.08700000       0.29000000
C       34.70610000      10.00000000      26.47390000      -0.00000061       0.00000000      -0.00002532    -157.88300000       0.39700000       0.29950000
C       34.19190000      10.00000000      31.21540000       0.00000737       0.00000000      -0.00001810    -158.22000000       0.06500000       0.22750000
C       39.18420000      10.00000000      31.65930000       0.00002115       0.00000000      -0.00003876    -158.06500000       0.19000000       0.26425000
C       34.58730000      10.00000000      32.59550000      -0.00001113       0.00000000       0.00002339    -158.08300000       0.19100000       0.15525000
C       31.31930000      10.00000000      32.92610000       0.00000928       0.00000000      -0.00001452    -158.08100000       0.19300000       0.32275000
C       36.04760000      10.00000000      32.66140000       0.00000187       0.00000000       0.00000023    -158.20200000       0.09700000       0.24125000
C       33.80490000      10.00000000      33.75580000       0.00001683       0.00000000      -0.00000762    -158.02300000       0.26800000       0.26575000
C       35.08510000      10.00000000       0.30253500      -0.00003501       0.00000000       0.00002449    -158.02700000       0.24700000       0.41175000
C       38.15830000      10.00000000      33.93870000       0.00004673       0.00000000       0.00005742    -157.86100000       0.35400000       0.29625000
C       36.39670000      10.00000000      38.00260000       0.00002645       0.00000000       0.00003891    -157.89000000       0.37400000       0.41625000
C       38.93860000      10.00000000      37.41040000       0.00001036       0.00000000      -0.00002315    -158.03200000       0.19500000       0.20875000
C       29.90280000      10.00000000       4.63321000      -0.00002242       0.00000000       0.00000239    -158.06600000       0.20900000       0.19300000
C       31.95210000      10.00000000       2.28598000      -0.00004863       0.00000000      -0.00000616    -157.81500000       0.45700000       0.33375000
C       35.95000000      10.00000000       4.61255000      -0.00005318       0.00000000       0.00000592    -157.92900000       0.33900000       0.24675000
C       34.57740000      10.00000000       5.05262000      -0.00000477       0.00000000      -0.00001756    -158.21600000       0.08500000       0.26950000
C       31.63880000      10.00000000       6.09498000      -0.00000395       0.00000000      -0.00002230    -158.11000000       0.17400000       0.12550000
C       32.82670000      10.00000000       6.77748000      -0.00003269       0.00000000      -0.00001032    -158.09700000       0.18500000       0.13550000
C       36.34430000      10.00000000       7.62865000      -0.00003030       0.00000000       0.00002202    -158.00400000       0.27800000       0.25225000
C       29.35090000      10.00000000       5.99324000      -0.00000887       0.00000000       0.00002871    -158.07600000       0.21700000       0.22075000
C       35.98400000      10.00000000      12.00660000       0.00000726       0.00000000       0.00000784    -158.18800000       0.10800000       0.39925000
C       34.29170000      10.00000000      10.07060000      -0.00000093       0.00000000       0.00001676    -157.95200000       0.33400000       0.34475000
C       35.59210000      10.00000000      10.68540000      -0.00001784       0.00000000      -0.00003530    -157.81200000       0.51800000       0.29500000
C       35.31250000      10.00000000      13.15020000      -0.00000050       0.00000000      -0.00002464    -158.13400000       0.15900000       0.28650000
C       30.57370000      10.00000000      12.39570000      -0.00001092       0.00000000      -0.00000882    -158.08300000       0.20100000       0.22500000
C       36.14730000      10.00000000      14.25790000       0.00001615       0.00000000      -0.00000583    -157.84500000       0.45700000       0.27625000
C       32.06250000      10.00000000      14.26680000       0.00001885       0.00000000       0.00001104    -157.90700000       0.37700000       0.33150000
C       29.89730000      10.00000000      14.87910000       0.00001657       0.00000000      -0.00000416    -157.91000000       0.37400000       0.45975000
C       31.67810000      10.00000000      18.02460000      -0.00000432       0.00000000       0.00000589    -157.88700000       0.39200000       0.48275000
C       28.56110000      10.00000000      17.30450000       0.00001807       0.00000000       0.00001883    -157.83700000       0.45700000       0.50225000
C       32.91340000      10.00000000      18.76760000       0.00000655       0.00000000      -0.00001504    -157.92600000       0.36700000       0.31050000
C       29.27400000      10.00000000      18.50110000       0.00002983       0.00000000      -0.00000976    -157.91200000       0.38600000       0.35050000
C       29.97640000      10.00000000      23.27100000       0.00002146       0.00000000      -0.00001631    -157.94100000       0.33700000       0.39000000
C       32.39300000      10.00000000      22.36960000      -0.00000667       0.00000000      -0.00001536    -157.87800000       0.40900000       0.30800000
C       33.39480000      10.00000000      26.00330000       0.00000653       0.00000000      -0.00000509    -158.26500000       0.01200000       0.41400000
C       33.50460000      10.00000000      23.29990000      -0.00000432       0.00000000       0.00001398    -158.11200000       0.17400000       0.32950000
C       29.50450000      10.00000000      24.61130000       0.00001941       0.00000000      -0.00004963    -157.81900000       0.46400000       0.33225000
C       32.37250000      10.00000000      27.02090000       0.00002807       0.00000000      -0.00002897    -157.77700000       0.49800000       0.29875000
C       32.85650000      10.00000000      30.80100000       0.00001082       0.00000000      -0.00000863    -157.97500000       0.31800000       0.19700000
C       29.85270000      10.00000000      28.71670000       0.00002126       0.00000000      -0.00001341    -158.35200000      -0.07100000       0.38325000
C       30.91330000      10.00000000      26.71650000       0.00002854       0.00000000      -0.00002676    -157.67300000       0.59800000       0.55800000
C       32.38470000      10.00000000      29.43410000       0.00002804       0.00000000      -0.00002715    -158.10700000       0.17400000       0.24250000
C       30.50430000      10.00000000      30.79240000      -0.00000378       0.00000000      -0.00002966    -158.00400000       0.28700000       0.27950000
C       34.58210000      10.00000000      35.00790000       0.00005545       0.00000000      -0.00000843    -158.08400000       0.20300000       0.31075000
C       35.98450000      10.00000000      35.17670000      -0.00004586       0.00000000      -0.00002341    -157.91700000       0.42300000       0.41450000
C       37.99380000      10.00000000      36.38030000       0.00005705       0.00000000      -0.00002067    -158.06300000       0.18000000       0.33575000
C       36.63830000      10.00000000      36.53080000      -0.00004748       0.00000000       0.00000481    -157.55200000       0.72500000       0.42550000
C       34.06610000      10.00000000      37.44590000      -0.00003026       0.00000000      -0.00004610    -157.72600000       0.56500000       0.32950000
C       33.02360000      10.00000000       1.43949000      -0.00000997       0.00000000      -0.00006898    -157.92200000       0.37000000       0.36125000
C       30.62070000      10.00000000       0.07308990      -0.00001387       0.00000000      -0.00001785    -157.97000000       0.30400000       0.34600000
C       29.50940000      10.00000000       2.10883000       0.00000240       0.00000000      -0.00002643    -158.04800000       0.23900000       0.25050000
C       26.67440000      10.00000000       4.35750000       0.00002821       0.00000000      -0.00000971    -158.06200000       0.21700000       0.28850000
C       26.86900000      10.00000000       5.76462000      -0.00003206       0.00000000      -0.00001069    -157.97700000       0.30300000       0.37600000
C       30.45030000      10.00000000       6.86366000       0.00001525       0.00000000       0.00000563    -158.31300000      -0.02800000       0.11525000
C       32.79930000      10.00000000       8.17236000      -0.00001817       0.00000000      -0.00000111    -158.27000000       0.02000000       0.12275000
C       28.08120000      10.00000000       6.59729000      -0.00000532       0.00000000      -0.00002509    -157.79500000       0.48500000       0.36550000
C       31.63180000      10.00000000       8.89376000      -0.00003347       0.00000000      -0.00000127    -158.23000000       0.05600000       0.06650000
C       33.03480000      10.00000000      10.80150000      -0.00001766       0.00000000      -0.00000155    -157.96300000       0.29700000       0.27550000
C       30.47220000      10.00000000      10.99650000       0.00002091       0.00000000      -0.00003246    -158.24300000       0.03400000       0.15625000
C       32.99910000      10.00000000      12.15950000      -0.00002653       0.00000000      -0.00002876    -157.91400000       0.37900000       0.34400000
C       28.08860000      10.00000000      11.42700000       0.00002387       0.00000000       0.00001204    -157.88800000       0.38500000       0.29025000
C       31.69770000      10.00000000      10.27540000      -0.00000588       0.00000000      -0.00001451    -158.17700000       0.09200000       0.11975000
C       31.21210000      10.00000000      15.35960000       0.00001596       0.00000000      -0.00000219    -157.85400000       0.44600000       0.49750000
C       28.89890000      10.00000000      15.86550000      -0.00001665       0.00000000       0.00000301    -157.63600000       0.63200000       0.39600000
C       26.59160000      10.00000000      16.07970000      -0.00001885       0.00000000       0.00000342    -158.17800000       0.10200000       0.27650000
C       27.65170000      10.00000000      15.20620000      -0.00002848       0.00000000      -0.00000803    -158.16400000       0.12100000       0.27850000
C       27.45300000      10.00000000      20.18280000       0.00000528       0.00000000      -0.00000916    -157.85500000       0.42800000       0.34125000
C       29.65300000      10.00000000      20.84170000       0.00002859       0.00000000       0.00000731    -158.15600000       0.12600000       0.28750000
C       27.14450000      10.00000000      21.52300000       0.00000585       0.00000000      -0.00000236    -157.86700000       0.40700000       0.40700000
C       29.22780000      10.00000000      22.15550000       0.00002710       0.00000000      -0.00001423    -157.92400000       0.35100000       0.29025000
C       33.06510000      10.00000000      24.67380000      -0.00000286       0.00000000      -0.00000165    -157.52400000       0.74900000       0.24700000
C       27.92600000      10.00000000      22.58340000       0.00001812       0.00000000      -0.00001509    -157.92100000       0.34700000       0.26050000
C       31.32660000      10.00000000      23.23690000       0.00001497       0.00000000      -0.00001844    -157.85900000       0.40800000       0.30175000
C       31.72170000      10.00000000      24.53860000       0.00000562       0.00000000      -0.00001711    -158.22600000       0.05300000       0.38075000
C       26.03450000      10.00000000      24.11360000       0.00000255       0.00000000      -0.00001231    -157.87000000       0.41100000       0.36075000
C       30.97490000      10.00000000      29.48450000       0.00002770       0.00000000      -0.00001615    -157.88100000       0.39100000       0.19525000
C       24.96260000      10.00000000      28.37960000       0.00001261       0.00000000       0.00000685    -157.25700000       1.05600000       0.46400000
C       28.66410000      10.00000000      29.46230000       0.00001582       0.00000000      -0.00001731    -157.89800000       0.39000000       0.18200000
C       29.06300000      10.00000000      30.80320000       0.00000509       0.00000000      -0.00001518    -158.06000000       0.20900000       0.29200000
C       28.17440000      10.00000000      31.88730000       0.00000956       0.00000000       0.00000108    -158.00900000       0.28200000       0.28250000
C       32.37440000      10.00000000      33.84070000      -0.00000286       0.00000000       0.00001875    -157.89100000       0.40100000       0.24825000
C       31.61760000      10.00000000      31.60830000      -0.00000764       0.00000000      -0.00003083    -158.03200000       0.23100000       0.25725000
C       32.88940000      10.00000000       0.12276800      -0.00002402       0.00000000      -0.00000515    -158.11700000       0.15700000       0.43125000
C       33.76080000      10.00000000      36.10910000       0.00000963       0.00000000       0.00001750    -157.91200000       0.34900000       0.36050000
C       29.12930000      10.00000000       3.49506000      -0.00001303       0.00000000      -0.00001095    -158.10000000       0.17500000       0.19625000
C       23.03470000      10.00000000       3.18864000      -0.00000630       0.00000000      -0.00003034    -158.08800000       0.19600000       0.42550000
C       30.38010000      10.00000000       8.24485000       0.00003124       0.00000000      -0.00002193    -158.18200000       0.09800000       0.11500000
C       25.93390000      10.00000000       2.06551000      -0.00000809       0.00000000      -0.00000443    -157.77700000       0.49900000       0.35525000
C       23.56970000      10.00000000       5.25249000      -0.00003030       0.00000000       0.00002628    -157.89200000       0.39600000       0.36650000
C       26.80830000      10.00000000       8.79316000      -0.00006899       0.00000000      -0.00002282    -157.55300000       0.72700000       0.40975000
C       29.15000000      10.00000000       8.97604000      -0.00002280       0.00000000      -0.00000648    -157.95600000       0.33400000       0.29675000
C       25.74000000      10.00000000       6.54113000      -0.00001991       0.00000000      -0.00000721    -157.78500000       0.49900000       0.29600000
C       24.56630000      10.00000000       8.44088000       0.00000077       0.00000000       0.00000665    -158.06700000       0.21800000       0.44325000
C       25.81650000      10.00000000       7.88120000      -0.00001124       0.00000000      -0.00002786    -158.18100000       0.10300000       0.38675000
C       29.16590000      10.00000000      10.43890000      -0.00001168       0.00000000       0.00000525    -157.98600000       0.29800000       0.26275000