     108
 Properties=species:S:1:pos:R:3:velocities:R:3:forces:R:3:local_energy:R:1:hirshfeld_v:R:1:fix_atoms:S:3 Lattice="64.6426378089       0.0000000000    0.0000000000    0.0000000000   64.6426378089    0.0000000000    0.0000000000    0.0000000000   64.6426378089" temperature=105.19968299 pressure=69.35402478 time_step=2.0000 time=20000.0000 energy=-568.913793 virial="7.21476226           -1.07334507      2.51233021     -1.06854214     13.51742247     -3.05421675      2.50722009     -3.05106118     11.43621793" stress="-0.00002671           0.00000397     -0.00000930      0.00000396     -0.00005004      0.00001131     -0.00000928      0.00001130     -0.00004234" volume=270120.291598 step=10000
 P             63.84884099       8.76842158      36.93728958       0.00263907       0.00080454       0.00284519      -0.12994037       0.42281818      -0.11734106      -5.34619938       0.91376433 F F F
 P             63.60074808       8.37300252      34.76704138      -0.00087020      -0.00229500      -0.00012509      -0.29515338       0.78071400      -0.36411966      -5.27310832       0.91512200 F F F
 P              0.04998835       7.02663368      35.99577931       0.00226213       0.00178560       0.00086456       0.72219011      -0.97366416       0.32123382      -5.15104625       0.91806063 F F F
 P             62.53982898       7.17036879      36.21367111      -0.00115213      -0.00325626      -0.00096265      -0.28464595      -0.26615350       0.12522512      -5.27779440       0.91408085 F F F
 P             62.68350020       4.90138928      31.25283457       0.00135540      -0.00038073      -0.00267086      -0.07341437      -0.53567319       0.48291621      -5.31967685       0.91714310 F F F
 P             64.19929667       4.42549077      32.77444990      -0.00176810       0.00261977      -0.00276693      -0.03917135       0.06298815      -0.07630712      -5.26923188       0.92262743 F F F
 P             62.62992192       2.94664915      32.37521472      -0.00025515       0.00030035       0.00142186      -0.10442821       0.59717282      -0.29822240      -5.30613398       0.91711382 F F F
 P             64.15397533       3.35457294      30.86981313      -0.00098734       0.00258326       0.00215999       0.21144181      -0.08111806      -0.07042645      -5.18112869       0.91698599 F F F
 P              1.77461942      39.06131442      62.49415018       0.00025909      -0.00130987       0.00135992      -0.11734753      -0.00894537      -0.44049769      -5.35429216       0.93013720 F F F
 P              1.18228055      37.11777277      61.69177855      -0.00004165      -0.00176536      -0.00227974       0.14376170      -0.21938878       0.04715082      -5.13952158       0.92890066 F F F
 P             64.37387664      38.32614588      62.77887548      -0.00152520      -0.00288759      -0.00196387      -0.29694641       0.06172624      -0.00795913      -5.26982747       0.91636571 F F F
 P              0.38635671      38.89982301      60.74490065      -0.00112488      -0.00088161      -0.00142079       0.23695963       0.19178385       0.44134579      -5.39323323       0.92360572 F F F
 P              8.26976063      17.65658822      25.89954454       0.00111323       0.00156304       0.00007578       0.33107303      -0.34021063       0.37538574      -5.24501831       0.92424712 F F F
 P              7.16912465      16.90786520      24.17767991      -0.00001596       0.00024226      -0.00057670      -0.16339254      -0.56965696       0.08574063      -5.30555895       0.91810106 F F F
 P              6.08486744      17.44006940      26.04811458      -0.00049902       0.00153853       0.00227298       0.22735073      -0.17707289      -0.25085303      -5.41217563       0.92529892 F F F
 P              6.99538325      18.94962796      24.77238332      -0.00128215      -0.00380402      -0.00147095      -0.38948659       1.11130273      -0.24688360      -5.13275337       0.91454079 F F F
 P             11.90847815      12.39682985      55.55288791       0.00131867      -0.00037260      -0.00158137       0.08002346       0.24799573      -0.34654684      -5.33993512       0.91721335 F F F
 P             10.34059954      10.91310859      55.30999944      -0.00121971       0.00120480      -0.00130823      -0.58543479      -0.08645245       0.09026574      -5.23160613       0.91445338 F F F
 P             11.63744710      11.34091562      53.61360740       0.00113151      -0.00140975      -0.00177985       0.03673151       0.42349378       0.01109922      -5.33438865       0.91459438 F F F
 P             12.41901457      10.30106338      55.35270504       0.00301595      -0.00546260       0.00367860       0.54973221      -0.60269573       0.24761790      -5.17396602       0.92275837 F F F
 P              3.28938471      13.18950701      36.87647044       0.00078744       0.00144174      -0.00143967      -0.05519388      -0.28699709       0.10921146      -5.19365311       0.91575814 F F F
 P              4.34585654      13.49964901      38.77557169      -0.00152032       0.00063796      -0.00070156      -0.56759108       0.25391862      -0.31416542      -5.35546094       0.91609006 F F F
 P              3.92095475      15.15971857      37.40888700      -0.00227698      -0.00198838      -0.00197954       0.08898060       0.19219266       0.22160942      -5.18699225       0.91575745 F F F
 P              2.26519143      14.24552810      38.49610894      -0.00141549       0.00102907       0.00132187       0.52924826      -0.16536040      -0.01912625      -5.31742355       0.91596181 F F F
 P             18.28463381      36.71265172      26.89589801      -0.00170256      -0.00047345      -0.00009532       0.28711744       0.08039525       0.09589739      -5.22925128       0.91582897 F F F
 P             19.34056401      34.79438163      26.77736006       0.00092351      -0.00027346      -0.00024390      -0.07697697       0.02689623       0.16190127      -5.22437010       0.91585027 F F F
 P             17.54800734      35.16517531      25.59497094      -0.00018869       0.00116012       0.00146501       0.45833503       0.06010281      -0.37948558      -5.27162753       0.91581089 F F F
 P             19.47165488      36.19127363      25.12214160      -0.00018498      -0.00053445      -0.00023980      -0.66846511      -0.16770375       0.12418747      -5.32141398       0.91596053 F F F
 P             22.49156642      14.35173838       7.61122751      -0.00012556       0.00242115      -0.00278430       0.02322862       0.03149675      -0.18483454      -5.18497685       0.91707898 F F F
 P             22.71603865      16.43642717       7.03590601       0.00037425      -0.00502557      -0.00012091       0.67967303      -0.66324032       0.23343537      -5.34023679       0.91734560 F F F
 P             23.54313685      15.70342405       8.94321107       0.00003324       0.00230772       0.00075103      -0.02866147       0.22952724       0.03198637      -5.18606227       0.91707430 F F F
 P             24.50354526      15.06819570       7.08246481      -0.00063047       0.00018521       0.00023479      -0.67145865       0.40115719      -0.07879347      -5.33017969       0.91730150 F F F
 P             13.88657894      14.72989071      12.07185631       0.00080942       0.00176278      -0.00034766       0.74922131      -0.19573250       0.48019387      -5.28425087       0.91317875 F F F
 P             13.91654892      13.24101916      10.46322165      -0.00178597       0.00133391       0.00149746       0.36847382       0.02355860       0.03719091      -5.33028187       0.91332855 F F F
 P             12.43097558      13.09929987      12.03268007      -0.00024879      -0.00106866      -0.00003370      -0.13823450      -0.44386266       0.54844150      -5.27943276       0.91325877 F F F
 P             12.34658448      14.70239296      10.60812078       0.00040440       0.00039509      -0.00195045      -0.98350064       0.61593495      -1.06567975      -5.11467122       0.91322064 F F F
 P              7.88878099      13.02506921      28.92326415      -0.00197461      -0.00245517      -0.00002701       0.15002645      -0.54004306       0.15384312      -5.17296214       0.92620302 F F F
 P              6.02936740      13.69791613      27.99544908      -0.00279648      -0.00091722      -0.00075815       0.43737660       0.03911240      -0.35188444      -5.38862862       0.92618145 F F F
 P              7.64505050      15.12017842      28.46825926       0.00015215       0.00023924       0.00006882      -0.08397657       0.40377692      -0.11697603      -5.20074727       0.92872304 F F F
 P              7.96033970      13.67561259      26.82855453       0.00336151       0.00074255       0.00024042      -0.50081180       0.05012800       0.34986256      -5.40316921       0.93683085 F F F
 P             17.69064554      12.55871088      55.90876103      -0.00105003       0.00028128      -0.00011865      -0.66770989      -0.46001148       0.10773264      -5.27936086       0.91879185 F F F
 P             15.93497049      11.36629687      56.65268757       0.00296605       0.00184944      -0.00028304       0.95084903       0.15896647      -0.42191017      -5.33504745       0.92567541 F F F
 P             16.39398495      11.44640355      54.50814682       0.00007506      -0.00013419       0.00106682       0.16532945       0.02544280       0.22161150      -5.22232803       0.92172001 F F F
 P             17.76426441      10.36209424      55.84950688      -0.00132924       0.00019254       0.00004861      -0.53008645       0.29124414       0.09056785      -5.25069368       0.91874385 F F F
 P             25.86773902      37.61833697      52.70582060      -0.00036123      -0.00404082      -0.00226195       0.09068876       0.49123475      -0.23588866      -5.36116164       0.91548067 F F F
 P             26.42528775      39.62443636      51.88975862       0.00018594       0.00229729       0.00108422       0.14707067      -0.39517430       0.05801573      -5.27780590       0.91522534 F F F
 P             24.48004237      38.76685045      51.46296741      -0.00009254      -0.00295350       0.00058898      -0.10138363      -0.12650209      -0.08626122      -5.21354719       0.91523234 F F F
 P             24.94603531      39.46779283      53.46936517      -0.00084740       0.00300903       0.00618797      -0.13374340       0.02920520       0.26930302      -5.19667980       0.91522235 F F F
 P              8.32889775      10.16364058      26.76948385      -0.00266881       0.00036755       0.00092549      -0.61614505      -0.28918544      -0.81038291      -5.35030669       0.93192857 F F F
 P              6.75814270      10.36025957      25.15545593      -0.00121731      -0.00107689       0.00106068       0.53244515       0.02900220       0.51540456      -5.32162423       0.92466125 F F F
 P              7.42680241       8.36337413      25.76837553       0.00141611      -0.00006291      -0.00034524       0.27386453       0.26669993       0.17098217      -5.26531424       0.91777035 F F F
 P              6.25853528       9.59302840      27.13528591       0.00011845      -0.00171359      -0.00062018      -0.19742258       0.01595934       0.12833620      -5.16573697       0.92566775 F F F
 P              3.87253766      37.82333212      59.90149122       0.00136979       0.00401414      -0.00274206       0.10060745      -0.05411369       0.43900070      -5.19722834       0.94511569 F F F
 P              4.45549171      35.95357918      58.97041196      -0.00375332       0.00085256       0.00102182       0.09619574      -0.38512840       0.02676223      -5.24256822       0.91785869 F F F
 P              5.97855513      37.43435053      59.50162179       0.00217176      -0.00033080      -0.00059832       0.17596734      -0.11771984      -0.01482598      -5.23027407       0.92706962 F F F
 P              4.98604353      36.27199597      61.09538859      -0.00012640      -0.00032188       0.00028179      -0.27950760       0.39202726      -0.54944863      -5.42556779       0.92309210 F F F
 P             29.58381314      38.23190665      58.40321947      -0.00012553      -0.00045706       0.00142507      -0.50467159       0.55313073      -0.54912852      -5.19535171       0.91380186 F F F
 P             31.08503016      36.69970631      58.24670420       0.00054970      -0.00188514      -0.00145473       0.16653164      -0.47741322       0.03851696      -5.24063077       0.91387092 F F F
 P             31.67692336      38.70744269      58.82201917       0.00023508       0.00013454       0.00115326      -0.03576158       0.19624683       0.09108754      -5.33526427       0.91400919 F F F
 P             30.47982094      37.48919346      60.18883611      -0.00093502       0.00130155      -0.00007883       0.37119236      -0.26849783       0.41482850      -5.26122806       0.91384703 F F F
 P             53.48912452      27.53234935      20.34095426       0.00107661      -0.00020849       0.00138001       0.31194344      -0.34675936      -0.00841166      -5.31508781       0.91755359 F F F
 P             55.57062977      26.85711173      20.68857575       0.00107189       0.00251192      -0.00101395      -0.25380243       0.05008375       0.13485251      -5.26463831       0.91739190 F F F
 P             53.86194813      25.62897588      21.39467617      -0.00249165       0.00087092       0.00005394       0.10193810       0.20461177      -0.03350345      -5.26483883       0.91740880 F F F
 P             54.31791413      25.78541851      19.25731089       0.00148416       0.00002760      -0.00071442      -0.16005966       0.09202476      -0.09295871      -5.21818531       0.91730490 F F F
 P             18.81420631      42.44120035      15.11482888       0.00005156       0.00173294       0.00050422      -0.21048493      -0.00217825      -0.10901527      -5.29140336       0.91487517 F F F
 P             20.42143701      43.66405494      15.92052795       0.00098771      -0.00044036      -0.00026393       0.10444732       0.30715520      -0.01174731      -5.27392382       0.91484035 F F F
 P             18.48118145      43.58691891      16.95197716      -0.00053945      -0.00283628      -0.00193266      -0.12353957       0.25706757      -0.13976802      -5.30502950       0.91487219 F F F
 P             19.79268571      41.88212972      16.97364682      -0.00028109       0.00105506       0.00278594       0.22960730      -0.56217777       0.26021703      -5.18134743       0.91476277 F F F
 P             57.46482991       7.78638284      60.23528570      -0.00267954       0.00113562       0.00015369       0.20721099      -0.22924266      -0.07672808      -5.29800071       0.91710372 F F F
 P             59.64934022       7.96639805      60.49025902       0.00311385      -0.00023388       0.00161498       0.16138742       0.01320828       0.41325633      -5.17542025       0.91686993 F F F
 P             58.82216499       6.12242073      59.63598356       0.00078155       0.00195037       0.00057735      -0.20395228       0.53047765      -0.12477507      -5.33998447       0.91722001 F F F
 P             58.79913460       8.03572019      58.49794005       0.00095811      -0.00001722      -0.00161216      -0.16458749      -0.31437900      -0.21173809      -5.23935740       0.91690513 F F F
 P              1.67712136      56.65723367       5.11435150      -0.00162667      -0.00372074       0.00172845      -0.13503258      -0.08909398       0.05191972      -5.38394420       0.92755183 F F F
 P              0.23875423      57.08587502       6.72116803      -0.00101968       0.00319144       0.00117679       0.13008406      -0.38751386       0.78640241      -5.21998398       0.91402580 F F F
 P              0.32186597      58.35387088       5.00873808      -0.00163097      -0.00141674      -0.00286057       0.03212197       0.66317571      -0.63410370      -5.18671983       0.91796485 F F F
 P             64.16364758      56.36104102       4.82440486      -0.00101122       0.00113348       0.00434374       0.00344085      -0.19372933      -0.25371366      -5.29371752       0.91452023 F F F
 P             61.20052364      50.46430314      32.05099975       0.00061085      -0.00155748       0.00181306       0.00297122      -0.00130462       0.43736894      -5.28838626       0.91533007 F F F
 P             63.11652855      51.14917850      31.26140414       0.00098010      -0.00163464       0.00028447       0.42006920      -0.12145137       0.05904966      -5.23533781       0.91531890 F F F
 P             61.26328797      51.90745816      30.44301300      -0.00034756      -0.00046318      -0.00014743      -0.29814008       0.40135690      -0.52522410      -5.17744169       0.91526038 F F F
 P             61.89837495      52.54247862      32.43661224       0.00087488       0.00042283      -0.00003128      -0.12490826      -0.27883093       0.02848118      -5.34873487       0.91552011 F F F
 P             20.92097335       3.71610928      26.32006053      -0.00004153       0.00135520       0.00010443      -0.10287746       0.20385452       0.28216971      -5.26994929       0.91609612 F F F
 P             21.99542234       5.60885320      26.15796827      -0.00293669       0.00047255      -0.00166560       0.03260179       0.06412872      -0.19121257      -5.26190586       0.91610216 F F F
 P             19.92848421       5.43205125      25.44172249       0.00057616      -0.00026541       0.00168664       0.12657463       0.08183443       0.06461991      -5.25209316       0.91607927 F F F
 P             20.36505150       5.43915956      27.58035238       0.00326320      -0.00164058      -0.00044939      -0.05231095      -0.34720681      -0.15619321      -5.27750731       0.91611732 F F F
 P             25.15846721      57.99641564      16.31021781       0.00012420       0.00002069      -0.00494415       0.11437895       0.20378574      -0.31637838      -5.27357123       0.91764475 F F F
 P             23.74493031      59.29000535      15.25125221       0.00029390      -0.00061511       0.00093098      -0.34633416      -0.34529058       0.05737347      -5.20873639       0.91742501 F F F
 P             25.67234586      58.91521111      14.36029482      -0.00180587      -0.00146604       0.00028359       0.18663740      -0.45472487       0.16878502      -5.24601884       0.91748462 F F F
 P             24.21304695      57.25161649      14.47795017      -0.00004474       0.00052099      -0.00029855       0.04568478       0.59613075       0.08967463      -5.31649385       0.91776411 F F F
 P              3.87327211      63.66918700      16.48130823       0.00063827       0.00013700      -0.00265372      -0.04991227      -0.11198045       0.45509369      -5.21125810       0.91472935 F F F
 P              3.05797961      64.41605507      14.64209682       0.00195346      -0.00292964       0.00193896      -0.43346327       0.01215127      -0.25590428      -5.22486815       0.91471466 F F F
 P              5.19061320      64.20342519      14.85767481       0.00089410      -0.00066876       0.00139362       0.42614185      -0.13179139      -0.15478251      -5.26012932       0.91473792 F F F
 P              3.91472669      62.41353923      14.71049715      -0.00242954       0.00353065       0.00020921       0.05889323       0.23229904      -0.04467765      -5.35249971       0.91495630 F F F
 P              2.61376662      58.01766427       1.53585525       0.00049834       0.00122744      -0.00177430       0.42115383      -0.00564575      -0.43902179      -5.28392912       0.92675648 F F F
 P              4.19568932      57.06529408       0.23035058       0.00116583       0.00294857      -0.00243691      -0.47984260       0.35697537       0.64903507      -5.34964401       0.91806204 F F F
 P              4.32932214      57.00979285       2.45867487       0.00167165      -0.00019667       0.00146025      -0.08007967      -0.14325601      -0.30240944      -5.25864281       0.92513775 F F F
 P              2.77458055      55.85589832       1.40334018       0.00141378       0.00179963      -0.00016708       0.10671516      -0.19972809       0.14407715      -5.21056357       0.92351800 F F F
 P             51.95609343      49.25218068      48.11391135      -0.00166757       0.00060947      -0.00173994      -0.21094361      -0.06949989       0.76718815      -5.19514667       0.91480575 F F F
 P             51.55729287      50.81174810      46.66755314       0.00051628      -0.00252874       0.00101150       0.74259504       0.73738093      -0.03030760      -5.26622578       0.91463550 F F F
 P             53.00826272      49.16967031      46.23791346       0.00087760       0.00096339       0.00004350      -0.14497950       0.40190528      -0.43648118      -5.35817579       0.91492255 F F F
 P             50.83380294      48.85389084      46.30800215       0.00103408       0.00195290      -0.00018943      -0.38675430      -1.06981293      -0.30034641      -5.18735557       0.91470019 F F F
 P              3.87266940      41.18566049      59.80987976      -0.00082580       0.00369024      -0.00254431      -0.11509886      -0.18272715       0.20323063      -5.26071638       0.93229515 F F F
 P              5.50454387      40.72049166      61.23056295       0.00178068      -0.00010735       0.00005154      -0.32170515       0.07410285       0.18134053      -5.29671270       0.93020085 F F F
 P              5.93449938      41.02725898      59.13267961       0.00229818       0.00180815       0.00033082       0.19092822       0.23238473      -0.26257359      -5.26469746       0.92681993 F F F
 P              5.29868713      42.74540496      60.37371495      -0.00011206       0.00173488      -0.00126146       0.18689324       0.01296860      -0.06460133      -5.32789352       0.91628943 F F F
 P             48.26737976      12.93776917      37.05985897       0.00003407      -0.00138639       0.00039508       0.31303240       0.47159999       0.10951922      -5.33186675       0.91737358 F F F
 P             49.55748618      14.75652354      36.90576053      -0.00103722      -0.00075305       0.00060620      -0.34880931      -0.25103864       0.00137730      -5.27914145       0.91718312 F F F
 P             48.71875415      14.16007844      38.85687365       0.00290551      -0.00262201       0.00353503      -0.06881479      -0.03623301      -0.15373236      -5.26098829       0.91719623 F F F
 P             50.28707223      12.97691145      37.92098162      -0.00232763      -0.00015517       0.00133753       0.10389234      -0.18451255       0.04323289      -5.18546987       0.91707236 F F F
