     108
 Properties=species:S:1:pos:R:3:velocities:R:3:forces:R:3:local_energy:R:1:hirshfeld_v:R:1:fix_atoms:S:3 Lattice="64.7304431080       0.0000000000    0.0000000000    0.0000000000   64.7304431080    0.0000000000    0.0000000000    0.0000000000   64.7304431080" temperature=86.40514554 pressure=37.18434787 time_step=2.0000 time=20000.0000 energy=-569.543141 virial="4.46290895            2.71660116     -1.07634515      2.72029941      4.50297477      0.57376348     -1.07946815      0.56653326      7.52813006" stress="-0.00001645          -0.00001002      0.00000397     -0.00001003     -0.00001660     -0.00000212      0.00000398     -0.00000209     -0.00002776" volume=271222.515687 step=10000
 P             63.92030888       9.34183227      25.83822748       0.00008214      -0.00074588      -0.00037238      -0.40409046      -1.06074223      -1.23925067      -5.18714760       0.93488795 F F F
 P              1.06581118       9.06512882      26.94248367       0.00046141      -0.00096017       0.00249008      -0.04822438       0.32885713      -0.28617528      -5.45108051       0.92727995 F F F
 P              0.70929289      10.88238282      25.68184447       0.00100717      -0.00018397      -0.00003767       0.43460130      -0.12572258      -0.18084366      -5.39284340       0.91651272 F F F
 P             64.31087371      10.57235463      27.49758034      -0.00213011       0.00018313       0.00286516      -0.01514566       0.83546769       1.66096138      -5.11974157       0.94783803 F F F
 P             63.77429224      15.09568475      30.97188100      -0.00054731      -0.00189740      -0.00213875       0.48767126       0.23338154       0.15962780      -5.25303176       0.91594757 F F F
 P             63.32140098      13.59176876      29.46838384      -0.00103245      -0.00293554      -0.00105780      -0.08584692       0.11914290      -0.13255573      -5.36489340       0.94197400 F F F
 P             61.75109447      14.85335715      30.31254965       0.00205551       0.00140441      -0.00215766      -0.60700958      -0.22452797       0.00119065      -5.21727843       0.92397830 F F F
 P             63.17839541      15.74167078      28.95920314       0.00153482      -0.00322694      -0.00081591       0.26593502      -0.10772200       0.01694430      -5.34795475       0.91566369 F F F
 P              4.86646103      49.58497101      43.53817616       0.00116910       0.00078347       0.00109540      -0.04618780       0.10973212      -0.13907268      -5.29843825       0.93481923 F F F
 P              6.59841560      50.81851269      43.04139012      -0.00015992       0.00086238      -0.00116537      -0.04532181      -0.02433197      -0.15609105      -5.23705328       0.92533013 F F F
 P              4.97620035      50.59208966      41.56082192      -0.00090319       0.00178635      -0.00053936       0.06132202       0.17196606       0.64663848      -5.34061954       0.91745665 F F F
 P              4.67625151      51.77151936      43.42281072       0.00108265       0.00071274      -0.00082504       0.00299469      -0.25417010      -0.33663116      -5.27310445       0.91723447 F F F
 P              2.24196589       9.01138822      30.21478502       0.00199567       0.00315679       0.00187869      -0.16633177       0.06598935      -0.47796293      -5.22967128       0.92583559 F F F
 P              1.96564017      11.12615495      30.76108319       0.00274248      -0.00281689       0.00066697       0.01972819      -0.41529308      -0.07341464      -5.41652563       0.92930430 F F F
 P              1.43021845       9.52875424      32.14921863      -0.00256493       0.00362832      -0.00147962      -0.05001474       0.09118783       0.29657073      -5.25030893       0.92937805 F F F
 P              3.54406986       9.90137815      31.67489965       0.00048323       0.00003366       0.00011798       0.20809617       0.23050709       0.30106079      -5.26221344       0.91577910 F F F
 P             24.39930659       0.48356705      63.81104985       0.00038735      -0.00034118       0.00028788      -0.63485641       0.32740943       0.25499087      -5.30803698       0.93086584 F F F
 P             22.82484002       2.02522042      64.34142276       0.00325492       0.00376090       0.00058554       0.92394096      -0.29505279      -0.31643213      -5.38469859       0.91703756 F F F
 P             24.45037368       2.43646257      62.87998274      -0.00317299      -0.00025544       0.00101849      -0.17249103       0.28638576       0.28699709      -5.22199928       0.91901152 F F F
 P             22.85639664       1.07447297      62.38005276      -0.00065429      -0.00281151       0.00219080      -0.10301334      -0.32469669      -0.21358233      -5.16384262       0.92278979 F F F
 P             60.12043954      12.33845963      28.10668561      -0.00132984       0.00262898      -0.00232083      -0.45741422      -0.52001713      -0.48815355      -5.31187702       0.93457516 F F F
 P             61.38799844      11.83311163      26.42426772      -0.00183203      -0.00073166      -0.00019432      -0.19022575       0.08074760      -0.27848791      -5.22552064       0.93978174 F F F
 P             59.69608091      10.51064271      26.85973129      -0.00120880       0.00300139      -0.00234281       0.02385213       0.69244410       0.25506874      -5.30434483       0.93017853 F F F
 P             59.29852403      12.54049510      26.04475977      -0.00211846       0.00161639       0.00207533       0.56718545      -0.30989084       0.52990382      -5.33078560       0.91916245 F F F
 P             14.17485711      31.87367789      35.43857428      -0.00096798      -0.00153370       0.00086257      -0.28133572       0.13682495       0.13267365      -5.23160120       0.91615592 F F F
 P             14.39003643      29.70768122      35.64897577       0.00043149       0.00106878       0.00043967       0.05268950      -0.03955907       0.13495062      -5.26137810       0.91622425 F F F
 P             13.84215265      30.55666077      33.71250008      -0.00157145      -0.00037422      -0.00003820       0.18523431       0.11255586      -0.03868663      -5.29900220       0.91628509 F F F
 P             15.87836298      30.87629287      34.53627968       0.00142797      -0.00089061       0.00034869       0.04341475      -0.20981996      -0.22891918      -5.27001534       0.91619604 F F F
 P             32.57946316      16.25014957      60.22241026       0.00232278       0.00147295       0.00103056      -0.35688170      -0.38349373       0.32296654      -5.25081990       0.91461067 F F F
 P             32.98017261      17.79994654      58.77229367       0.00023363       0.00143426      -0.00047496      -0.07695063       0.39973704      -0.33213371      -5.27115756       0.91463569 F F F
 P             32.75986089      18.32833088      60.89197144      -0.00118004      -0.00072837      -0.00339699      -0.32349151       0.10098772      -0.00350560      -5.32806238       0.91473763 F F F
 P             34.49835969      17.23197430      60.21705388       0.00073343      -0.00169817       0.00013126       0.75737747      -0.11727490       0.01266038      -5.19673316       0.91459642 F F F
 P              7.14921590      26.15117641       8.88060681       0.00039343      -0.00008095      -0.00108057       0.16998491       0.45333288       0.08291588      -5.05952515       0.91828570 F F F
 P              7.78348195      24.11764218       8.42565549       0.00136147       0.00117991       0.00006903      -1.05822783       0.30467005      -0.28893281      -5.33138011       0.91861227 F F F
 P              5.81110555      24.52618639       9.42698845      -0.00185517       0.00027872       0.00168021       0.33010484      -0.15647689      -0.62003354      -5.27566772       0.91848558 F F F
 P              6.08700691      25.11814026       7.27737511       0.00068550       0.00068161       0.00011336       0.55822203      -0.60137306       0.82622762      -5.33811111       0.91866168 F F F
 P             61.65463495       8.34894602      28.44265972      -0.00147043      -0.00193562       0.00031548      -0.27894034      -0.20757075       0.15890707      -5.24928828       0.95174465 F F F
 P             61.83170742       6.39079039      27.48803311       0.00260051      -0.00149559      -0.00105336      -0.65859077      -0.13653568      -0.31667558      -5.20285189       0.92303619 F F F
 P             63.05311549       6.86182636      29.17612601       0.00106386      -0.00115830      -0.00150010      -0.12324946      -0.14217071       0.85658384      -5.25160012       0.93428369 F F F
 P             60.83083796       6.53470659      29.49153794      -0.00114737      -0.00134531       0.00064633       1.10919785       0.50298403      -0.69815422      -5.45882023       0.92343180 F F F
 P             26.83026600      62.60152965      62.49103037       0.00062830      -0.00278543       0.00062808      -0.03032673       0.05403009       0.64314160      -5.26899740       0.92041014 F F F
 P             26.86228616      61.91449601      60.46189298       0.00332543       0.00199084       0.00246967       0.88273770      -0.27266828      -0.83027323      -5.22896654       0.91393060 F F F
 P             25.10487881      62.86247627      61.19685240       0.00046607      -0.00152484       0.00151402      -1.01640808       0.33863270       0.39618070      -5.16876492       0.92644366 F F F
 P             26.87297703      64.08708236      60.89535232      -0.00028105       0.00112512       0.00289263       0.14683634      -0.11419967      -0.22039516      -5.40828605       0.92129656 F F F
 P             27.97338166      34.08987161       4.84458138       0.00152903      -0.00018607       0.00072910      -0.35913186      -0.15193257      -0.42550124      -5.41133083       0.91829804 F F F
 P             26.22781537      34.82996214       3.69472075      -0.00060529      -0.00267625      -0.00036241       0.11781034       0.18135901       0.02017571      -5.24532862       0.93068990 F F F
 P             28.06850463      34.31082504       2.65343703      -0.00374917      -0.00046030       0.00123136       0.66195482       0.63259042      -0.29633940      -5.19360600       0.91563671 F F F
 P             26.84977899      32.77372810       3.45706399       0.00228135       0.00179847      -0.00073668      -0.33657295      -0.63717305       0.58315707      -5.20714574       0.92164051 F F F
 P             62.17877811       9.00579302      32.21805420       0.00243254       0.00033437       0.00099989      -0.02160914      -0.38682047       0.52291925      -5.27511742       0.93324629 F F F
 P             62.74286414      10.73217837      31.06080013      -0.00470966       0.00211631      -0.00020667      -0.20688202       0.56993420       0.15644535      -5.35075133       0.94883887 F F F
 P             61.02591802      10.85617142      32.47578041      -0.00201018       0.00015376       0.00246457       0.12900506       0.05159086      -0.43076633      -5.31221428       0.91818585 F F F
 P             63.05982044      10.75344252      33.24532104      -0.00052955       0.00124720      -0.00316854       0.06514898      -0.16602093      -0.31270663      -5.29723158       0.92638063 F F F
 P              4.53321615      48.56463744      47.22686749      -0.00271557       0.00172971      -0.00014668       0.56119010       0.68105467      -0.11170564      -5.13373235       0.93116964 F F F
 P              3.20858976      47.19221777      48.19624214       0.00193907       0.00021088      -0.00082195      -0.36491807      -0.46326490      -0.01778025      -5.27179505       0.91580030 F F F
 P              3.93019593      46.79583798      46.13468505      -0.00138183      -0.00229270      -0.00215741      -0.05182569      -0.26490339       0.32152647      -5.37255616       0.92723108 F F F
 P              5.30250135      46.61689178      47.86787936      -0.00117749       0.00030309      -0.00355926      -0.14211694       0.03932057      -0.19847194      -5.36586565       0.92987241 F F F
 P             22.12517640      33.57605177       4.60296260      -0.00029701       0.00059371       0.00038478       0.01417477       0.31565831       0.45112158      -5.37192971       0.91716834 F F F
 P             22.09399802      34.21715411       6.74986586      -0.00069964      -0.00228853       0.00368181      -0.22014531      -0.29716949      -0.27542857      -5.32694350       0.91601994 F F F
 P             23.84174837      33.20434965       5.89052240      -0.00008539      -0.00001298       0.00058467       0.18119389      -0.33446109       0.20178074      -5.22832073       0.92722368 F F F
 P             23.39012212      35.23333542       5.31826711       0.00052568       0.00152488      -0.00119659      -0.05728210       0.29127266      -0.26010626      -5.17002813       0.92448057 F F F
 P             58.16500745      41.61072762      19.24573515      -0.00109286       0.00046586      -0.00135471      -0.08336745       0.33831216       0.59990746      -5.18211614       0.91445898 F F F
 P             58.97375077      40.57764112      17.56498059      -0.00030056      -0.00011720       0.00211229       0.08614829      -0.35889839      -0.43199948      -5.24046165       0.91448338 F F F
 P             58.92197587      39.57525904      19.49424031       0.00019314       0.00027398      -0.00170782      -0.04742217       0.13178610      -0.01732827      -5.32166066       0.91467866 F F F
 P             57.05981787      39.95532562      18.41924987       0.00142389       0.00165116      -0.00002751       0.04475941      -0.11148393      -0.15084504      -5.29714156       0.91461065 F F F
 P             14.71712897      41.29101351      11.38804900      -0.00097517       0.00067455      -0.00204333       0.37870597      -0.01240310      -0.03288954      -5.29028800       0.91640081 F F F
 P             16.65001596      42.31926597      11.74460790       0.00012180      -0.00109483       0.00008379      -0.37975177      -0.19076349       0.04863721      -5.30167653       0.91645077 F F F
 P             15.13724369      42.17058689      13.33348625      -0.00105573      -0.00002124       0.00039869       0.12753448       0.09679504       0.11094415      -5.21660765       0.91629927 F F F
 P             16.25085558      40.40264913      12.70768099       0.00107000       0.00142927       0.00111822      -0.12851015       0.10689378      -0.12658997      -5.25413788       0.91636180 F F F
 P             64.13229067      17.66213182      59.59717022      -0.00002409       0.00184727      -0.00251905      -0.20224193       0.32237229      -0.06993069      -5.25767533       0.91547241 F F F
 P             64.68253311      17.32967979      61.70161665      -0.00045583      -0.00213792      -0.00102248      -0.03296288       0.02145067      -0.01312349      -5.31490880       0.91561003 F F F
 P             63.18980360      16.04479428      60.74307115       0.00193893       0.00015271       0.00044059      -0.17943440       0.02103896       0.06336941      -5.28417446       0.91553750 F F F
 P              0.54060781      15.90922187      60.15779442      -0.00134339      -0.00031013       0.00193552       0.41460022      -0.36504168       0.01935660      -5.20366523       0.91541994 F F F
 P             60.25515199      53.51593487      14.58426028      -0.00080508      -0.00012862       0.00064351       0.93407328       0.63698997       0.27839240      -5.31489931       0.91914059 F F F
 P             62.34829205      53.92014569      13.93640437       0.00065507      -0.00084924       0.00152214      -0.51726931       0.14999874       0.26029301      -5.21517690       0.91885852 F F F
 P             61.40726581      55.27391920      15.42562522       0.00029422      -0.00124029       0.00195556      -0.19682878      -0.96426289      -0.42955488      -5.35773179       0.93051169 F F F
 P             61.96060633      53.18132774      15.95006278      -0.00058614      -0.00240652      -0.00028388      -0.23621493       0.27957873      -0.12501289      -5.19369736       0.91882806 F F F
 P              2.00919654      41.13915255      29.83798688      -0.00177050      -0.00001087      -0.00001284      -0.02920945      -0.00593138      -0.22785956      -5.27776756       0.91427036 F F F
 P              3.09984834      41.37472250      31.69195195      -0.00082160       0.00003245      -0.00087163       0.52418155      -0.01093029       0.15992074      -5.20091766       0.91419087 F F F
 P              1.87834098      43.00649306      30.95587122       0.00057763      -0.00034583      -0.00264680      -0.10969705      -0.07478520       0.01537053      -5.31492690       0.91432992 F F F
 P              0.96331460      41.17497919      31.73541767       0.00033844      -0.00136120      -0.00109447      -0.38482409       0.09024868       0.05150626      -5.25366129       0.91421575 F F F
 P             31.63798085       7.08721322      25.37047994       0.00057323      -0.00275577       0.00074876       0.02816335       0.40276366      -0.20464689      -5.24219130       0.91883939 F F F
 P             32.94836369       8.87920685      25.50165469       0.00183227       0.00146928      -0.00234793      -0.76928433      -0.11317593      -0.16620265      -5.29663839       0.91900606 F F F
 P             31.26228060       8.84009051      24.03071019      -0.00032337       0.00194191      -0.00051640       0.36636716      -0.27031781       0.52509297      -5.27982674       0.91894018 F F F
 P             30.82249617       8.96617683      26.19274923       0.00007928       0.00001026       0.00157414       0.37472503      -0.01928466      -0.15422360      -5.23068072       0.91880488 F F F
 P             16.55390751      55.39563896      61.84263645      -0.00141582      -0.00047152      -0.00122052      -0.37313428      -0.23922891      -0.87524641      -5.21459120       0.91437558 F F F
 P             18.64383358      54.68211364      61.74325779      -0.00142583       0.00013315      -0.00183876      -0.31562146       0.14039719      -0.05584467      -5.34578761       0.91469341 F F F
 P             17.97093012      56.05132821      63.29223930       0.00101913      -0.00006440       0.00040556       0.60448480       0.20339743       0.67988871      -5.18055258       0.91442284 F F F
 P             17.28653256      53.97427819      63.30362363      -0.00024653      -0.00106387      -0.00044928       0.08183592      -0.10524525       0.25228191      -5.28518289       0.91459759 F F F
 P             11.37515384      63.00969773      20.64749486       0.00302791      -0.00072724       0.00046151       0.37128730      -0.19671393      -0.96055217      -5.28447496       0.92009595 F F F
 P             10.63675470      63.11572818      18.54433664      -0.00118659       0.00234398      -0.00202252       0.35019544       0.23042240       0.31121807      -5.18726803       0.91977848 F F F
 P             12.65992843      63.91806624      19.06099585       0.00058893      -0.00111964       0.00115327      -0.68831157      -0.85398499       0.16448575      -5.29394835       0.92014549 F F F
 P             12.25210532      61.70678573      19.03578093       0.00147973      -0.00041884       0.00168534      -0.03306136       0.82023045       0.48493703      -5.25366844       0.91990055 F F F
 P             60.56471145      58.56934192      13.72226279       0.00163852      -0.00122810       0.00063503       0.17951523       0.15480444       0.18362941      -5.30390181       0.92427242 F F F
 P             60.81422161      59.43321549      15.72806332      -0.00100014       0.00005990      -0.00105588      -0.00469418      -0.46936539       0.30590725      -5.21366273       0.92027982 F F F
 P             62.58744997      58.99365028      14.49281968      -0.00052655      -0.00008521       0.00041623      -0.41757235       0.21776745      -0.02680225      -5.34535336       0.92228148 F F F
 P             61.20342092      60.66699042      14.01292379      -0.00162840       0.00117702       0.00160191       0.25911057      -0.00484910      -0.44737355      -5.23721222       0.91684559 F F F
 P             54.46559450      54.61030768      44.68353947      -0.00225535      -0.00134113      -0.00092811      -0.30811622       0.11106245      -0.13760441      -5.29403597       0.91686605 F F F
 P             53.77286397      55.92964869      43.03851107       0.00034980      -0.00238858      -0.00054744       0.19773791      -0.48860138       0.14688015      -5.35154224       0.91707853 F F F
 P             55.07653771      54.19080373      42.64073325       0.00015954       0.00172279      -0.00034248       0.45582289       0.25950431      -0.31715244      -5.16826556       0.91661829 F F F
 P             53.02600093      53.86569046      43.19162122       0.00180567       0.00285742       0.00082369      -0.34552251       0.11799596       0.30793282      -5.23327802       0.91669422 F F F
 P              8.51469640      46.72362329      46.47444304       0.00175337      -0.00025746       0.00158258       0.20844947       0.43920552      -0.47652593      -5.29673470       0.92893789 F F F
 P              7.85223244      48.76672165      45.90478723      -0.00012716       0.00340803      -0.00172751       0.16204002      -0.18618254      -0.06226763      -5.25743656       0.94028740 F F F
 P              9.63380151      47.89889838      44.90611659       0.00055670       0.00148722      -0.00083465      -0.55747407      -0.31970253       0.43222789      -5.32596565       0.91941995 F F F
 P              7.61284231      47.09060773      44.49059256       0.00189082      -0.00073411      -0.00077424       0.21218799       0.07328129       0.09970192      -5.29161846       0.93538342 F F F
 P             45.86959276      60.22846805      60.85090645       0.00147214       0.00021604      -0.00091617      -0.09924564      -0.30888290       0.30541449      -5.19120053       0.91618694 F F F
 P             46.95908922      62.08370785      61.24176316       0.00046815      -0.00109146       0.00142278      -0.20707537       0.06097474       0.00067302      -5.29384165       0.91634398 F F F
 P             46.76078175      61.30395625      59.20983236      -0.00159984      -0.00173263       0.00145982      -0.06209193       0.22445718      -0.26789600      -5.24132741       0.91621587 F F F
 P             44.97831140      62.12476093      60.23739124      -0.00089626      -0.00027956       0.00178438       0.36843249       0.02337842      -0.03819359      -5.33172212       0.91643530 F F F
