     108
 Properties=species:S:1:pos:R:3:velocities:R:3:forces:R:3:local_energy:R:1:hirshfeld_v:R:1:fix_atoms:S:3 Lattice="64.7276193485       0.0000000000    0.0000000000    0.0000000000   64.7276193485    0.0000000000    0.0000000000    0.0000000000   64.7276193485" temperature=117.78242825 pressure=19.30651684 time_step=2.0000 time=40000.0000 energy=-569.439469 virial="2.54637959            2.11072475     -3.42531038      2.11072475      1.14219499      0.51195328     -3.42531038      0.51195328      2.85692882" stress="-0.00000939          -0.00000778      0.00001263     -0.00000778     -0.00000421     -0.00000189      0.00001263     -0.00000189     -0.00001053" volume=271187.022322 step=20000
 P             59.43273153      11.04078069      22.19350408       0.00125334      -0.00185847       0.00180168      -0.17712697       0.45927787       0.07311360      -5.39532342       0.91693840 F F F
 P             58.32480448      12.68496497      21.14315246       0.00015445       0.00155372       0.00081079       0.43786740       0.35765250       0.31430395      -5.33358877       0.92489689 F F F
 P             58.01724899      10.62128055      20.60187443       0.00045823      -0.00272051      -0.00213204      -0.12707864      -0.89785934      -0.97697020      -5.14300546       0.93026917 F F F
 P             57.25428728      11.31900182      22.48156277       0.00188316      -0.00227275      -0.00018984      -0.11706083       0.26588545       0.60257111      -5.26445106       0.94820006 F F F
 P             54.31105263       9.19114502      24.09080374      -0.00298719      -0.00212707       0.00036921      -0.48452726       0.18151473       0.18405309      -5.29547875       0.94615633 F F F
 P             56.37466385       8.53246237      24.01593882       0.00123368       0.00233939       0.00395169       0.37159381      -0.06380824       0.00306858      -5.23544379       0.93107798 F F F
 P             54.75839266       7.04391939      23.92797460       0.00277538      -0.00283952      -0.00304244      -0.08506292      -0.12281787      -0.09860253      -5.39544301       0.92265651 F F F
 P             55.11523128       8.42051132      22.23980956       0.00143284       0.00322675       0.00369035       0.05160523      -0.26422462      -0.18160648      -5.31220313       0.94204362 F F F
 P              8.53751128       5.90959984      22.76883769       0.00017444       0.00102633      -0.00078753       0.14399184       0.13444778      -0.31405698      -5.25446528       0.92184592 F F F
 P              7.08778509       6.42783950      21.19438525       0.00087429       0.00020355       0.00140257       0.56480011      -0.22041579      -0.11302317      -5.28869043       0.92014877 F F F
 P              9.28093026       6.65591174      20.80130401       0.00107102       0.00019486       0.00121811      -0.53388061      -0.15807193       0.36301789      -5.30514224       0.93737455 F F F
 P              8.39619832       4.63416432      20.96869939      -0.00055477      -0.00240057      -0.00218422      -0.21333735       0.23284897      -0.00865810      -5.26480147       0.93762146 F F F
 P             54.14134447      12.49970244      24.86449367       0.00030307       0.00282577      -0.00413021       0.04778496      -0.08909067      -0.23120654      -5.21109792       0.94837737 F F F
 P             54.15667288      13.15272525      26.93780650      -0.00120050       0.00257216      -0.00275583       0.37404556      -0.16841259       0.08371109      -5.35209516       0.92274586 F F F
 P             55.83237810      11.90513741      26.13276748      -0.00526219      -0.00151347      -0.00214084      -0.35457181       0.05408030       0.32149769      -5.35437136       0.92944166 F F F
 P             55.61515484      13.97589604      25.51455841       0.00116200      -0.00087202       0.00317939      -0.06389667       0.30266911      -0.09177221      -5.25923849       0.92019951 F F F
 P             45.22292493      60.51038377      43.69217653       0.00303556       0.00190368       0.00155328      -0.20780654      -0.00317264       0.20230147      -5.22801830       0.91727875 F F F
 P             47.07839426      59.59027568      44.41782411       0.00043808       0.00085890       0.00149739       0.01090946       0.01023465       0.31571324      -5.20776809       0.91646210 F F F
 P             46.06689590      58.76741288      42.66310391      -0.00299774      -0.00138637       0.00127571       0.19869288       0.40534667      -0.23543951      -5.30480244       0.91657406 F F F
 P             47.07321925      60.77722830      42.59096157       0.00075879       0.00030237       0.00124813      -0.03098974      -0.37090673      -0.32649662      -5.27926596       0.91717448 F F F
 P             54.09007894      12.37603214      21.28904794      -0.00228499       0.00225582      -0.00047952       0.18595585       0.12176017      -0.16417869      -5.40431335       0.94715500 F F F
 P             54.89259052      13.28696688      19.42467453      -0.00205927       0.00019491       0.00072892       0.11853562       0.01946215       0.28117456      -5.31978554       0.92678936 F F F
 P             54.19827186      11.21649492      19.43244715      -0.00189748      -0.00050241       0.00242849       0.11502149      -0.20908852      -0.14967373      -5.24192739       0.93786698 F F F
 P             52.76121538      12.84553652      19.60375586      -0.00310443       0.00078914       0.00245015      -0.36237342       0.11139004      -0.01965001      -5.28547580       0.92731316 F F F
 P              7.19778118      12.53287091      48.32778962      -0.00125190      -0.00148274       0.00038922      -0.06393991      -0.34395901       0.30704237      -5.22404133       0.91535407 F F F
 P              6.58822642      14.60974143      48.05311610       0.00082093       0.00034734      -0.00099508       0.02726271       0.23889595       0.20236111      -5.29696962       0.91987316 F F F
 P              8.70578572      14.12040268      48.49915309       0.00094527      -0.00125391       0.00056442      -0.14839297       0.09455918       0.10819577      -5.31729006       0.91551632 F F F
 P              7.82511277      13.62434582      46.57046567      -0.00059543       0.00028798       0.00077398       0.17830041       0.01608181      -0.61841288      -5.17714533       0.91531992 F F F
 P             50.84876519      20.50872133      36.02226528       0.00064484      -0.00194282      -0.00008066      -0.37492501      -0.31476046       0.39830294      -5.18820786       0.91514622 F F F
 P             52.61256497      20.75728292      34.80206456      -0.00123150      -0.00084642      -0.00132267       0.43221715      -0.00486063      -0.14698444      -5.24138594       0.91518725 F F F
 P             50.83038560      21.92190463      34.37158332       0.00242956      -0.00021906      -0.00173260      -0.12366116       0.25958476      -0.20230527      -5.25406607       0.91521900 F F F
 P             51.99826036      22.36515504      36.18407767       0.00000140       0.00312015       0.00041321       0.06641543       0.05985200      -0.04933597      -5.31502312       0.91534982 F F F
 P             13.08538810      37.97130289      15.35615923      -0.00190659       0.00030915      -0.00029235       0.19021550      -0.10180002       0.09624341      -5.32677116       0.92184887 F F F
 P             15.01930281      38.25488159      14.34087245       0.00086623       0.00180799       0.00051574       0.14312504       0.19645172       0.01085614      -5.26071351       0.92183891 F F F
 P             14.94605743      37.10593412      16.22306323       0.00273858      -0.00229329      -0.00182063      -0.07713009       0.21893336       0.00593279      -5.33563934       0.93040059 F F F
 P             14.10109215      36.29240115      14.38209849      -0.00234935       0.00399748      -0.00317827      -0.17103337      -0.32070142      -0.14840916      -5.21430121       0.92436868 F F F
 P             49.95435210       9.12048842      24.48568073       0.00099947       0.00033464      -0.00005450       0.21738140      -0.08323310       0.66874368      -5.38090025       0.93471787 F F F
 P             51.16876185       7.87304718      25.88688632      -0.00155622       0.00029841       0.00021093      -0.27808356       0.32841570      -0.18540204      -5.29882441       0.92796459 F F F
 P             51.22489324      10.08700850      26.03681523       0.00003594       0.00432472      -0.00047492       0.13438569      -0.00806451      -0.23936497      -5.25782748       0.93741779 F F F
 P             49.43850032       8.99126344      26.65840902       0.00331584      -0.00252062      -0.00105965      -0.04016906      -0.15655373      -0.28910944      -5.23424882       0.91855958 F F F
 P             40.74821209      61.69594568      39.58065597       0.00142539       0.00281898       0.00046400      -0.18645730       0.15489818       0.56261522      -5.26615823       0.91690291 F F F
 P             41.36056638      63.65634826      40.47190252       0.00337824      -0.00265803      -0.00029187      -0.18457662      -0.53104468       0.08540810      -5.34683839       0.92416528 F F F
 P             42.85589682      62.08422097      40.07611868       0.00020468       0.00165077      -0.00187299      -0.07024327       0.13605515      -0.08216284      -5.34456896       0.92806315 F F F
 P             41.84803278      63.13416062      38.42589453       0.00039990      -0.00347195      -0.00034600       0.47606146       0.18908838      -0.49846115      -5.10767975       0.92585786 F F F
 P             17.65418249      36.56318277      21.51900043       0.00011173      -0.00006035      -0.00052099      -0.14187885       0.45914231      -0.41095755      -5.26658098       0.91877286 F F F
 P             15.73835167      37.63773445      21.71476408      -0.00215758       0.00060978       0.00302606       0.12597623       0.02093162      -0.43219431      -5.25650538       0.92831268 F F F
 P             17.61343701      38.77686573      21.57779877      -0.00148968       0.00023255      -0.00262539       0.07056015      -0.16694666      -0.00640477      -5.19647427       0.91861109 F F F
 P             16.87479150      37.74488637      19.78219354      -0.00108906      -0.00119488       0.00354332      -0.12184991      -0.32337384       0.81203374      -5.34625083       0.92734418 F F F
 P             51.65472173      14.85269064      23.54287567       0.00069891       0.00117380      -0.00144100      -0.20473427      -0.08555065      -0.16737607      -5.31373648       0.93032791 F F F
 P             50.32374072      13.16355140      22.99269333       0.00407948      -0.00194648      -0.00073466       0.41074088      -0.25479018       0.37013601      -5.35760880       0.93257942 F F F
 P             50.43513272      13.90387075      25.10169602      -0.00136950      -0.00010012      -0.00076167      -0.06622555      -0.28555618      -0.23785098      -5.31769561       0.92889122 F F F
 P             49.45025406      15.07401543      23.54069855      -0.00100032      -0.00054365      -0.00003052      -0.06640304       0.51989191       0.04778911      -5.18708316       0.91706746 F F F
 P              7.73135333       4.34644494      17.19072639      -0.00083990       0.00006629      -0.00165585       0.54299532      -0.12034608       0.06951623      -5.25916021       0.92657944 F F F
 P              8.58993895       4.82414999      15.24409998      -0.00003975       0.00003448      -0.00071745       0.09325484       0.22954357      -0.03580738      -5.18149692       0.91836922 F F F
 P              9.26606032       5.93123596      17.04542799      -0.00053787      -0.00010059      -0.00236862      -0.01772797      -0.49946901      -0.21942103      -5.32883869       0.93013539 F F F
 P              9.86761705       3.80658482      16.72052303       0.00237157       0.00179873       0.00003149      -0.60017232       0.41189774       0.24900185      -5.33411283       0.92778989 F F F
 P             11.33306956      35.31453176      18.86999444       0.00054964      -0.00159310       0.00258081      -0.09790245      -0.00221687      -0.01141992      -5.31288419       0.91581640 F F F
 P             12.26216653      37.29424415      19.07502050       0.00093424       0.00005720      -0.00134931       0.07887339       0.33111973      -0.38220767      -5.28661614       0.92790193 F F F
 P             12.07921951      36.01543144      20.79940520       0.00338573      -0.00081449      -0.00329399      -0.20816353      -0.27353166       0.60177253      -5.22136553       0.91997681 F F F
 P             13.48635008      35.48797313      19.23855675       0.00223441       0.00353113      -0.00160016       0.25521827      -0.06190661      -0.17411120      -5.28887909       0.93110288 F F F
 P             52.30961957      30.33440489      20.73392525       0.00228240      -0.00055218       0.00081961       0.04459235       0.21515250      -0.00692865      -5.27131226       0.93112970 F F F
 P             53.83181001      29.93409934      19.18710019      -0.00197329      -0.00221859      -0.00423139      -0.00466075      -0.26973644       0.18342813      -5.25545781       0.93564791 F F F
 P             52.14870864      28.54398894      19.49949140       0.00277115       0.00046932      -0.00159146       0.07273722       0.18140980      -0.31217955      -5.29173782       0.91708427 F F F
 P             51.83223841      30.54940833      18.58868389      -0.00340485       0.00054681      -0.00086141      -0.22583106      -0.21918392       0.05093038      -5.28578502       0.92182770 F F F
 P             19.19863534      35.31629410      11.64571406      -0.00066334      -0.00468809       0.00268482      -0.12017420       0.29559286       0.12516062      -5.24318242       0.91737586 F F F
 P             17.49031385      34.72682667      12.89879549      -0.00153511       0.00209277       0.00228657       0.03243499      -0.24499800      -0.09100964      -5.25078727       0.92249695 F F F
 P             17.27132010      36.43184559      11.56875028       0.00196914       0.00024257       0.00276224       0.28765164      -0.18117294      -0.25482501      -5.30073997       0.92426942 F F F
 P             17.46616117      34.39392720      10.70239648      -0.00269704      -0.00035527       0.00094278      -0.24506913       0.15521807       0.26068046      -5.25997062       0.91741429 F F F
 P              2.85046849      15.55398487      49.03416469       0.00026773       0.00137735      -0.00011330       0.49399278       0.08415040       0.10379531      -5.16908551       0.92140405 F F F
 P              1.08229681      14.75216914      48.07799769       0.00277493      -0.00084980      -0.00178272      -0.32003067      -0.11307446       0.13097657      -5.22602377       0.91672203 F F F
 P              0.96401859      15.56974643      50.14890805      -0.00053325      -0.00229517       0.00170286      -0.06676001       0.13452023      -0.56092375      -5.33143278       0.91700213 F F F
 P              1.25894786      16.91823239      48.38070236      -0.00281004       0.00247527      -0.00075171      -0.10037239      -0.11101094       0.32695399      -5.28295774       0.91685867 F F F
 P             55.58284958      33.02047732      18.75048989      -0.00111686       0.00137367      -0.00140167       0.24186139      -0.43373828       0.07566829      -5.19291194       0.93000297 F F F
 P             53.92599463      33.95028152      19.81294427      -0.00023490      -0.00185979       0.00185958      -0.33927429      -0.01819887       0.04215021      -5.29072492       0.92831896 F F F
 P             55.96986864      34.41665743      20.41689256      -0.00122562      -0.00003123      -0.00028389       0.05951016       0.08634969      -0.38946956      -5.33828332       0.92307412 F F F
 P             55.19648517      35.11261202      18.44979792      -0.00015399      -0.00258492       0.00012879       0.06463511       0.45059037       0.23820412      -5.26526290       0.91617735 F F F
 P             50.35991129       2.89207200      20.49731500      -0.00113200       0.00155451       0.00057540      -0.18022241      -0.13916971       0.15422882      -5.30715587       0.91679432 F F F
 P             49.39179752       1.00925061      21.12728124       0.00118213       0.00309737       0.00033135       0.23291990      -0.02947385       0.30483941      -5.21506018       0.91656246 F F F
 P             48.22517344       2.86390148      21.06843377       0.00050878       0.00288382       0.00014458       0.15213112       0.00124911      -0.16772849      -5.29468350       0.91676452 F F F
 P             48.90391760       1.88351275      19.21440547      -0.00028207       0.00209692       0.00190416      -0.19488661       0.20114319      -0.28763136      -5.20130861       0.91655303 F F F
 P             51.14008627       9.58329653      21.29387014       0.00212558      -0.00279145       0.00010294      -0.14498798       0.17364396       0.06507817      -5.40978637       0.94177409 F F F
 P             51.67818191       8.76999839      19.33091531       0.00030764      -0.00461960      -0.00005276       0.84559560       0.29395411      -0.52004065      -5.22052612       0.92462575 F F F
 P             51.85074594       7.53219129      21.11455491      -0.00322750      -0.00249162      -0.00131005       0.32627668      -0.27586445       0.09226320      -5.32648890       0.93071287 F F F
 P             49.91746375       8.06447141      20.28507248      -0.00093517       0.00322456      -0.00172029      -1.07650052      -0.25783553       0.44144501      -5.22516564       0.91659426 F F F
 P              0.16511634      44.57855153      32.71103030      -0.00180483       0.00036673      -0.00226602       0.53618067      -0.26440786       0.14937169      -5.24542024       0.91849630 F F F
 P              2.17026122      43.98792239      33.55985639       0.00005565      -0.00061861      -0.00126045      -0.58144539       0.26601577      -0.24725011      -5.26946448       0.91858898 F F F
 P              0.97448047      45.61542482      34.46948229       0.00012533       0.00016116       0.00050042      -0.02833038      -0.45214472       0.12007422      -5.23044810       0.91849891 F F F
 P              0.31203062      43.48527732      34.62859268       0.00019342      -0.00078966       0.00027181       0.07359045       0.45052734      -0.02221653      -5.23712923       0.91852895 F F F
 P             44.68257656       0.51272146      38.76644638      -0.00192265      -0.00115729       0.00138607       0.69010992       0.06992125      -0.03469419      -5.33996040       0.93108655 F F F
 P             45.09730608       0.88515750      40.86324264      -0.00052999      -0.00083042       0.00271401      -0.49553390      -0.20560110       0.87031886      -5.07282851       0.92288045 F F F
 P             46.50448199      64.35832061      39.75366206       0.00322006      -0.00029800      -0.00063980      -0.35623445       0.41363158      -0.33607493      -5.36377187       0.92043503 F F F
 P             46.37484546       1.83480516      39.41923017      -0.00005100       0.00212930       0.00209851       0.15487338      -0.26832225      -0.52442009      -5.27266351       0.91688229 F F F
 P             54.54697645      30.22759312      23.56643562       0.00090255       0.00007794       0.00305250      -0.17912352       0.20648568      -0.11377400      -5.23925921       0.92464699 F F F
 P             55.92016530      30.90395121      21.94976174       0.00087576       0.00132031       0.00201703      -0.12779798      -0.05733327       0.26640026      -5.38415279       0.93879364 F F F
 P             56.61814191      30.69071118      24.03376432      -0.00130117      -0.00313978       0.00114935       0.21319511       0.04152275       0.06887782      -5.24633059       0.91661836 F F F
 P             56.11963781      28.91059640      22.86654395      -0.00123810       0.00077090      -0.00171653       0.18034881      -0.18163414      -0.10381736      -5.23868647       0.91845157 F F F
 P             56.84151030      63.19968534      33.17904622      -0.00102235       0.00059644      -0.00079023       0.13144749      -0.12303851       0.06421066      -5.32650100       0.91478440 F F F
 P             56.13322771      64.48093299      31.57059821       0.00028684      -0.00010199       0.00054711      -0.90131728       0.68807542       0.14599089      -5.22582686       0.91444464 F F F
 P             57.39276576      62.84625843      31.08819387      -0.00120621       0.00000195      -0.00001784       1.37406168      -0.74232087      -0.37434092      -5.09701138       0.91445975 F F F
 P             55.40581797      62.39711868      31.72759558       0.00173692       0.00093936      -0.00134952      -0.60446724       0.17764587       0.16392975      -5.30065909       0.91461835 F F F
 P             12.37142060       4.55091715      21.53167517      -0.00206277      -0.00161379      -0.00088052       0.08226663       0.11354560       0.22660543      -5.20713909       0.93051900 F F F
 P             12.66664153       5.21828435      19.45150750       0.00073672       0.00241163      -0.00101966      -0.10323420      -0.55059319       0.08867412      -5.37235303       0.92923590 F F F
 P             13.97738917       3.65324108      20.32730149       0.00019555       0.00176870       0.00026086      -0.01155565       0.13038242      -0.04408008      -5.25498713       0.91759380 F F F
 P             11.86914865       3.16974213      19.92645849      -0.00094294      -0.00072800      -0.00026116       0.05328624       0.29553732      -0.26265806      -5.27818513       0.92975318 F F F
 P             44.97212032      35.55576808      27.96047336       0.00060690      -0.00053340       0.00195659      -0.10822169      -0.40654018       0.37562832      -5.19279292       0.91568962 F F F
 P             45.92026983      37.50706721      28.11264510       0.00014200      -0.00174253       0.00107739       0.02113020       0.16401113      -0.04193593      -5.27216902       0.91583180 F F F
 P             47.01056291      35.83982003      27.19345669       0.00035818      -0.00046984      -0.00074009      -0.01539715      -0.04317868      -0.01583020      -5.29507029       0.91589191 F F F
 P             45.27940742      36.71334221      26.16210858       0.00056378      -0.00013008       0.00010862       0.10297379       0.28540157      -0.31823692      -5.24074097       0.91573768 F F F
