     108
 Properties=species:S:1:pos:R:3:velocities:R:3:forces:R:3:local_energy:R:1:hirshfeld_v:R:1:fix_atoms:S:3 Lattice="64.5218503203       0.0000000000    0.0000000000    0.0000000000   64.5218503203    0.0000000000    0.0000000000    0.0000000000   64.5218503203" temperature=493.18170588 pressure=-18.65308856 time_step=2.0000 time=20000.0000 energy=-565.242582 virial="-12.97321301          6.02210317     -1.45022611      6.02210317     -8.84633351     -0.15374875     -1.45022611     -0.15374875     -1.20437461" stress="0.00004830           -0.00002242      0.00000540     -0.00002242      0.00003293      0.00000057      0.00000540      0.00000057      0.00000448" volume=268608.925780 step=10000
 P             28.45534407      30.77895991      29.77117019       0.00080508      -0.00277556       0.00158906       0.54866376      -0.10594318      -0.33864358      -5.12360325       0.91921170 F F F
 P             28.94355207      30.94827183      27.56566316      -0.00003968       0.00486596       0.00742932      -1.23219619       0.88596781       1.58879319      -5.38690285       0.92051471 F F F
 P             26.84186607      30.69120936      28.32043762      -0.00173969      -0.00385916      -0.00645360       0.04385216      -0.05513561      -0.46667595      -5.09799669       0.91931683 F F F
 P             27.81731622      32.60895592      28.73839924      -0.00845808       0.00117478      -0.00304097       0.63943942      -0.72453953      -0.78381160      -5.24899200       0.91923286 F F F
 P              1.27824316      40.28839691      60.30661905      -0.00240303       0.00127283      -0.00222695      -0.28291102       0.99217623      -0.24208895      -5.23752337       0.91919974 F F F
 P              1.01907874      41.81955269      61.89631076       0.00732397       0.00032869       0.00060423       0.42981312      -0.18552884      -0.42055178      -5.23899774       0.91953706 F F F
 P              3.00920988      41.35396651      61.04580789      -0.00275425       0.00055068      -0.00311393      -0.11507969       0.42651607       0.21667998      -5.14497031       0.91921474 F F F
 P              1.54478703      42.52762187      59.84984452      -0.00096775       0.00453489      -0.00354495      -0.03178398      -1.23314819       0.44595108      -5.31300199       0.91968931 F F F
 P             11.72976584      48.79543875      25.21564862      -0.00180242      -0.00391496      -0.00177117       0.38129098      -0.26399269       0.47675420      -5.31986164       0.91729547 F F F
 P             11.52198622      46.87978859      26.30325603      -0.00273818      -0.00178721      -0.00107507      -0.16878258       0.05611438      -0.09712526      -5.22382858       0.91711365 F F F
 P             12.80363240      47.02028562      24.53416779       0.00198422      -0.00177924       0.00320697       0.05549449      -0.18112735      -0.14737784      -5.18354892       0.91707059 F F F
 P             13.42651857      47.93602629      26.41684276      -0.00344484      -0.00153836       0.00333963      -0.26223147       0.38999700      -0.23582304      -5.27050589       0.91712336 F F F
 P             20.06559292      32.75080945      53.36239947       0.00342253      -0.00192715       0.00558582      -0.22957468      -1.19136529       0.99856974      -5.00387831       0.91931951 F F F
 P             20.34219722      33.83871634      51.56921650      -0.00305159       0.00232427       0.00147645       0.82892485      -0.95407934      -1.29469939      -5.21104469       0.91885211 F F F
 P             21.43847311      31.77972583      51.89759775      -0.00336463      -0.00067159       0.00106292      -0.84280941       1.59200399      -0.04845588      -5.33467760       0.92017478 F F F
 P             19.27344759      31.85691668      51.48072385      -0.00196815      -0.00366955       0.00662779       0.24346254       0.55347020       0.34456959      -5.23132662       0.92008844 F F F
 P             50.86942365       9.64222036      48.46232239      -0.00238349       0.00504285       0.00204002      -0.86302687       0.15204738      -0.57232864      -5.40964962       0.91679392 F F F
 P             49.30544475      10.59431580      47.16087974       0.00650790       0.00417581       0.00393417       1.01317330       0.68047229      -1.27539567      -5.09388440       0.91573132 F F F
 P             48.74487100       8.95603358      48.37993024       0.00269298      -0.00343714      -0.00206249       0.05024977      -0.78559605       1.03609383      -5.20513381       0.91598171 F F F
 P             49.28656781      10.90983559      49.26149239       0.00256350      -0.00319850       0.00005688      -0.20039848      -0.04700631       0.81166120      -5.18365876       0.91619830 F F F
 P             31.57438152      45.32051899      52.97030666      -0.00246499       0.00708216      -0.00464730      -0.84681137       0.06132147      -0.86653148      -5.35089836       0.92452561 F F F
 P             31.20284000      46.41059467      51.06221680       0.00007279       0.00395279      -0.00277687       0.44813656      -0.85562685      -0.11934040      -5.21008490       0.91877543 F F F
 P             30.51638593      44.24511698      51.29039890      -0.00037232      -0.00046209       0.00201648       0.66105511       0.98822883       0.22720262      -5.30503409       0.91926616 F F F
 P             29.52752698      45.90885998      52.30714110       0.00135667       0.00233239       0.00513895      -0.24613579      -0.17428841       0.78647410      -5.06254483       0.91870940 F F F
 P             44.63809137      25.61776069      28.70863868      -0.00110051       0.00077776      -0.00288465      -0.29391424       0.60422728      -0.08556627      -5.25587413       0.91485749 F F F
 P             45.78313947      23.82492257      28.44180875      -0.00282870       0.00002525      -0.00117466       1.05768089      -0.28642666      -0.24745516      -5.21422489       0.91464121 F F F
 P             43.83281200      23.93271260      27.60773141       0.00039434      -0.00018590       0.00338754      -1.22412655      -0.32827851      -0.12163541      -5.10353685       0.91482812 F F F
 P             45.35702340      25.13889932      26.67547633      -0.00404586       0.00354542       0.00016005       0.45720581       0.00626183       0.45255608      -5.37330694       0.91506264 F F F
 P             39.37578520      17.75457431      24.73255189      -0.00474641      -0.00070581      -0.00215510       0.49363589       0.95741423      -0.17050783      -5.23030554       0.92065761 F F F
 P             39.87283162      19.89369956      25.27281741      -0.00468579      -0.00303395      -0.00111889       0.18888714      -1.01650319      -0.70686153      -5.25962831       0.92078243 F F F
 P             41.19959562      18.24873421      25.87613370      -0.00078079       0.00513486       0.00575261       0.12555167       0.13745980      -0.48431796      -5.12668816       0.92042343 F F F
 P             41.09325586      18.80101206      23.68064495       0.00317808      -0.00376419      -0.00330198      -0.80536213      -0.07375146       1.36342485      -5.30781966       0.92113683 F F F
 P             16.56202497      42.71858332      21.19661938      -0.00124424       0.00092702      -0.00229333      -0.60508727      -0.95582459       0.87285202      -5.34959887       0.91953425 F F F
 P             16.88395287      40.89600560      22.51431998       0.00522757       0.00293675       0.00268075      -0.24554361       0.41563634      -0.91036192      -5.29344933       0.91934882 F F F
 P             14.88156888      41.82016516      22.44061964      -0.00496445       0.00760660      -0.00064915       0.22562866       0.80995586       0.10598386      -5.13581662       0.91862925 F F F
 P             15.58030472      40.80384814      20.66092583       0.00035075      -0.00033986      -0.00594095       0.63999514      -0.27037313      -0.06184201      -5.14879917       0.91878363 F F F
 P              9.12421268      26.53306457      42.08253464      -0.00449610       0.00349447      -0.00205806       0.17118471       0.02747339      -0.36059666      -5.24956787       0.91565652 F F F
 P              6.94348808      26.45277293      42.19108509      -0.00320087      -0.00237079      -0.00116544      -0.15775608      -0.28814111       0.16769417      -5.25359713       0.91566857 F F F
 P              8.16203313      27.19743347      43.88642930       0.00743913      -0.00084688      -0.00227708      -0.28311759       0.01304726       0.30351593      -5.24365039       0.91564737 F F F
 P              7.93804595      28.38316505      42.05161989      -0.00026077       0.00129746      -0.00717112       0.26970460       0.24764416      -0.11062185      -5.24897539       0.91565992 F F F
 P             45.43916851      60.55738216      63.28553587       0.00329210       0.00041730      -0.00046395      -1.17915703       0.02063925       0.33973638      -5.20324425       0.91968850 F F F
 P             45.15713266      59.81941523       0.82774595       0.00145734      -0.00750558      -0.00657673      -0.08636215       0.99624798      -0.36718491      -5.26691417       0.92040543 F F F
 P             45.78590315      61.93850776       0.37159649       0.00227577      -0.00413396       0.00036193      -0.00655834      -0.21038021       0.66823315      -5.09066315       0.91980827 F F F
 P             43.68364398      61.33965323       0.06309309       0.00139627      -0.00497308       0.00163561       1.27203870      -0.80647887      -0.64078792      -5.31386058       0.92045024 F F F
 P             15.11574752      54.35158742      23.50734039       0.00001628       0.00235598       0.00341755      -1.37450055      -1.56518750      -1.65570248      -5.07141930       0.91301378 F F F
 P             16.29953017      55.68935012      24.55271732       0.00365571      -0.00673362       0.00716350       1.40722541       1.55060703       1.25384044      -5.13785205       0.91293873 F F F
 P             15.60863133      53.88931907      25.53997576       0.00579889      -0.00458188      -0.00336354      -0.17357245      -0.03658459       0.71353063      -5.28357591       0.91333051 F F F
 P             17.15127649      53.75993323      24.04830027      -0.00240240       0.00493027       0.00218627       0.13768462       0.04523774      -0.31082425      -5.37680604       0.91350412 F F F
 P             21.40811072      39.66581824      23.51578520      -0.00086813      -0.00308429       0.00449396      -0.07976807      -0.15397326      -0.08785147      -5.27238426       0.91655752 F F F
 P             23.14267925      38.59271227      24.31843260       0.00299750       0.00212738      -0.00127074       0.13706677       0.26215414       0.47218805      -5.22536486       0.91625573 F F F
 P             22.82626315      38.59594496      22.20006854      -0.00048806      -0.00495540       0.00384685      -0.20742560       0.11204972      -0.51297571      -5.21247563       0.91625622 F F F
 P             23.41034906      40.46441392      23.18239436      -0.00308504      -0.00568549      -0.00290043       0.13270738      -0.21527226       0.12482487      -5.29138439       0.91646340 F F F
 P             51.26696682      31.85187916      32.81237330       0.00789320      -0.00286685      -0.00573493       0.42792536       0.15271990       0.02049317      -5.24594904       0.91844387 F F F
 P             53.38669927      32.50731864      33.01015605       0.00326117      -0.00095679       0.00074057      -0.53795219      -0.01428035      -0.01553929      -5.26173021       0.91849113 F F F
 P             52.20004449      33.03805180      31.21118958      -0.00416004       0.00841719      -0.00161351      -0.09293087       0.14482963       0.32452462      -5.23310411       0.91841906 F F F
 P             51.72966373      33.97797041      33.15964971      -0.00061823      -0.00233751      -0.00334397       0.20278247      -0.28346959      -0.32964634      -5.25539137       0.91848235 F F F
 P             49.47679381      44.30968080      21.10602155      -0.00560944      -0.00324419       0.00130269      -0.16862398       0.42939663       0.41844372      -5.25155344       0.91734731 F F F
 P             49.25709382      43.63319644      23.20538025       0.00085977       0.00430902      -0.00068284       0.03670977      -0.18733254      -0.51714426      -5.29322487       0.91756929 F F F
 P             47.50395556      44.39005349      22.14669257      -0.00228008      -0.00134506       0.00472526       0.25193973       0.10745118      -0.31401513      -5.25072805       0.91745016 F F F
 P             48.39294689      42.49696832      21.49407272      -0.00201344      -0.00016021       0.00339461      -0.12003002      -0.34952965       0.41273538      -5.18233387       0.91726417 F F F
 P             41.81929538      55.06393059      14.85252867       0.00272676       0.00207015       0.00118734      -0.87834281      -0.48466512      -0.24376763      -5.38006319       0.91564754 F F F
 P             39.63069769      55.07836560      14.17164146       0.00076827       0.00202194       0.00413674       0.50739076      -1.05526918      -0.80784296      -5.23725190       0.91498602 F F F
 P             40.17602720      55.93281890      16.02284142       0.00125820       0.00152824      -0.00076920       0.31611940       0.62272710       1.13526823      -5.13465499       0.91542244 F F F
 P             40.82723901      56.86842123      14.16475489      -0.00109704       0.00503816       0.00103433       0.05486154       0.91718387      -0.08367603      -5.13430664       0.91554212 F F F
 P             16.07213442      47.41408746      61.61253681      -0.00291249      -0.00104383      -0.00388500      -0.03782077       0.42637876      -0.20318079      -5.23516907       0.91795631 F F F
 P             16.23557302      48.75558992      59.83877738       0.00015171      -0.00348698      -0.00050268      -0.33548734       0.10154289       0.43995386      -5.20582288       0.91782711 F F F
 P             17.36821578      46.93400442      59.94782890      -0.00336518       0.00169908       0.00768817      -0.47406677      -0.53823361      -0.22620180      -5.20774564       0.91770486 F F F
 P             15.13241769      46.86111241      59.72418384       0.00611460       0.00005602       0.00282662       0.84737504       0.01027599      -0.01059437      -5.30838261       0.91812189 F F F
 P             33.57943364      48.19398109      57.88113335      -0.00358870       0.00494238      -0.00300557       0.40601718      -0.69846877      -0.12326569      -5.20900241       0.91726828 F F F
 P             34.92397950      48.90503858      56.24991880       0.00088317       0.00146134       0.00104452      -0.70294929      -0.25277179       0.23545921      -5.34498348       0.91787245 F F F
 P             32.96986392      47.91973739      55.76291285       0.00140077       0.00041765       0.00052731       0.43917765       0.14258525       0.38796733      -5.33401145       0.92217896 F F F
 P             33.01103179      49.87223347      56.73034250       0.00310911      -0.00521351      -0.00316993      -0.15847633       0.78914009      -0.52766862      -5.09225525       0.91726690 F F F
 P              5.49193181      33.78416253      27.65881996       0.00391044      -0.00133727       0.00037890      -0.55827661      -0.01248431       0.87317543      -5.08373205       0.91612406 F F F
 P              6.22137960      35.47936915      26.49518866      -0.00641585       0.00189516      -0.00515285       0.49757358      -0.52655308       0.06930716      -5.36063341       0.91651124 F F F
 P              7.64803140      34.03556928      27.50134591       0.00069692       0.00115951      -0.00204953      -0.26191577       0.43450257      -0.23554705      -5.32673286       0.91640061 F F F
 P              6.44117077      33.39005556      25.79084013      -0.00047826       0.00435362      -0.00218947       0.32274603       0.10465973      -0.70699921      -5.19208014       0.91609898 F F F
 P             30.94778980      21.25838533      19.88808562       0.00423716      -0.00118780      -0.00299697       0.01947655      -0.06153339      -0.10876212      -5.24072689       0.91735927 F F F
 P             33.00238310      21.99637078      19.67625202       0.00563336      -0.00410773       0.00035565      -0.05753561      -0.12142385      -0.20289255      -5.25876457       0.91739244 F F F
 P             32.57196010      19.84347887      19.45392903      -0.00151575      -0.00328010      -0.00490821      -0.01041207       0.06611781       0.05537679      -5.23876488       0.91735830 F F F
 P             31.89749891      21.23396160      17.90822217       0.00000004      -0.00305449       0.00208309       0.04914008       0.11670170       0.25681947      -5.26985447       0.91742276 F F F
 P             20.50578956       5.47474657      22.89991220       0.00499767      -0.00260959      -0.00331109      -0.22268109      -0.37033945      -0.04119921      -5.19997698       0.91591194 F F F
 P             21.63788279       7.18175318      23.62673008       0.00534488       0.00129693      -0.00593770       0.01820720       0.27227339      -0.27475550      -5.29998146       0.91603339 F F F
 P             21.00319725       7.06224029      21.50453087      -0.00741110      -0.00116232       0.00155212       0.41491149       0.04236990       0.01472610      -5.25958012       0.91593498 F F F
 P             19.52094472       7.44373262      23.04358898      -0.00307666       0.00254437       0.00841262      -0.21043436       0.05569019       0.30122926      -5.23376781       0.91593969 F F F
 P             40.86921031       8.45704188      56.59386276      -0.00269548       0.00100580      -0.00569527      -0.58913363       0.66707437       1.24904980      -5.37422934       0.91937557 F F F
 P             41.60486943       8.95121930      58.64480253       0.00121380      -0.00617685      -0.00764499      -0.14473161       0.14896058      -0.40748828      -5.22237963       0.91875228 F F F
 P             40.10730932      10.29780219      57.69261987      -0.00512718      -0.00068022       0.00057172       0.66923963      -0.10105413      -0.49821266      -5.20543304       0.91844441 F F F
 P             39.52110009       8.37524593      58.41501780       0.00170593       0.00164350       0.00015174       0.06475001      -0.71501567      -0.34343860      -5.12504945       0.91833368 F F F
 P             59.56923585       1.40334583      19.89794071       0.00037301      -0.00097424       0.00406232      -0.96945238      -0.17869988       0.46940912      -5.12397319       0.91529798 F F F
 P             61.60661633       1.73539708      19.41560528      -0.00668479      -0.00212624      -0.00296916       0.91736663       0.16442541      -0.15482961      -5.17541193       0.91529742 F F F
 P             60.20045641       1.33401915      17.81137731       0.00128106       0.00412163      -0.00188151       0.01896745       0.35050023      -0.08520604      -5.31481764       0.91551864 F F F
 P             60.15167828       3.27148936      18.90606793       0.00785177      -0.00168247       0.00042380       0.03304167      -0.33579871      -0.22883638      -5.35906411       0.91567950 F F F
 P             59.14285917      25.60999918      20.76325053       0.00416199      -0.00121543       0.00768132      -0.51233075       0.12874255       0.44682995      -5.18254440       0.91615725 F F F
 P             60.28162974      24.66994534      19.22095774      -0.00123005       0.00422619       0.00312818       0.50431178      -0.05875286      -0.94308559      -5.05476776       0.91618473 F F F
 P             61.08706015      24.76762367      21.23790579       0.00208575       0.00403513      -0.00027988      -0.51773386      -0.63898127      -0.03953036      -5.33952175       0.91633169 F F F
 P             59.33157977      23.40545442      20.70422695      -0.00112208       0.00076803       0.00404813       0.52573788       0.56900416       0.53585108      -5.36444002       0.91640413 F F F
 P             43.62907383      30.36171541      54.16661493       0.00610581       0.00256912      -0.00061133       0.67226758       0.78539617      -0.27296112      -5.00353000       0.92054435 F F F
 P             42.47474878      31.22681222      55.81154249      -0.00076016       0.00120249       0.00055256       1.09674832      -1.05517504       0.37327207      -5.25550883       0.92128922 F F F
 P             43.59534400      29.20799875      55.96228525      -0.00400331      -0.00145260      -0.00408375      -0.28589674       1.28370592       0.75645834      -5.20537710       0.92072596 F F F
 P             44.74330203      31.19715596      55.98325529       0.00071338       0.00433479       0.00218524      -1.48312480      -1.01391726      -0.85676438      -5.32795804       0.92205148 F F F
 P             57.72677846       4.54370869      41.06290375       0.00264805       0.00618389      -0.00428915       0.48661771       0.55740508       0.48478035      -5.24688701       0.91670207 F F F
 P             59.90962260       4.00680006      41.26756496       0.00115266       0.00526372      -0.00302995      -0.35056188       0.63596360       0.08539598      -5.25524891       0.91679418 F F F
 P             58.36660035       2.77150307      42.21685276      -0.00199147      -0.00326135      -0.00649440      -0.12237951      -0.20648585      -0.49548662      -5.28980714       0.91701830 F F F
 P             58.57164227       2.89116105      40.00276510       0.00390444       0.00493692       0.00116752      -0.01376967      -0.98679233      -0.07467008      -5.14330390       0.91661178 F F F
 P             58.62133894       7.33584159      27.70950895       0.00039922      -0.00683293       0.00436920       0.47590902      -0.07799715      -0.25008079      -5.26731960       0.91695894 F F F
 P             59.86896351       9.09395250      28.14961665      -0.00431401      -0.00496204       0.00471963       0.17626668      -0.04868239       0.27515075      -5.18220469       0.91692720 F F F
 P             59.77124270       8.37323154      26.07239606      -0.00538934      -0.00307295      -0.00255675      -0.63334692      -0.13685429       0.42700714      -5.34395074       0.91724940 F F F
 P             58.01953590       9.31173256      27.08001313       0.00395799      -0.00496383       0.01262151      -0.01876581       0.26310834      -0.45255846      -5.18526057       0.91683507 F F F
