     108
 Properties=species:S:1:pos:R:3:velocities:R:3:forces:R:3:local_energy:R:1:hirshfeld_v:R:1:fix_atoms:S:3 Lattice="47.5663566236       0.0000000000    0.0000000000    0.0000000000   47.5663566236    0.0000000000    0.0000000000    0.0000000000   47.5663566236" temperature=94.25453925 pressure=-30.23235441 time_step=2.0000 time=61420.0000 energy=-572.859814 virial="-3.67694513          -1.57401393     -1.17696940     -1.57401393     -0.96722530      2.07786260     -1.17696940      2.07786260     -4.05538086" stress="0.00003417            0.00001463      0.00001094      0.00001463      0.00000899     -0.00001931      0.00001094     -0.00001931      0.00003768" volume=107621.654145 step=30710
 P             15.27983597      17.35934670      43.16220749      -0.00044870      -0.00031761       0.00207892      -0.14085157      -0.03315709      -0.08516598      -5.26092168       0.91820308 F F F
 P             14.62646262      15.69710401      44.44683336       0.00207081      -0.00162360       0.00255660      -0.13310224       0.22808072      -0.19653456      -5.28055526       0.93577653 F F F
 P             13.11788234      17.02639275      43.48210835       0.00030704      -0.00150201      -0.00129003       0.18001979      -0.09191730       0.04877099      -5.36187100       0.94335545 F F F
 P             14.28332892      15.60306302      42.26033299       0.00340012      -0.00134681      -0.00044366       0.10491269       0.13306463       0.21238914      -5.29557234       0.92882786 F F F
 P             36.61230953      35.57790383       7.36838258       0.00007317       0.00157596       0.00211852       0.11414368      -0.10963816      -0.41529821      -5.23906116       0.93417475 F F F
 P             37.22314815      35.45748768       9.44588782      -0.00371948       0.00135821       0.00146831      -0.09599935       0.02556694       0.23095188      -5.31346056       0.91892039 F F F
 P             37.29934255      37.37698820       8.40399757      -0.00185316       0.00082084      -0.00002886       0.05038904       0.15948646      -0.06154071      -5.36649147       0.94116905 F F F
 P             35.34735422      36.48681521       8.87703401      -0.00241616       0.00308482      -0.00141949      -0.02088131      -0.01920781       0.25589523      -5.35498559       0.93029495 F F F
 P             26.97921446      38.28497853       6.76411973       0.00118202       0.00109819       0.00026042       0.06549459      -0.10644278      -0.08194528      -5.27373102       0.92145902 F F F
 P             24.86092489      38.40105516       7.33937646       0.00165668       0.00028671      -0.00122248      -0.04380534      -0.04759062       0.16264434      -5.29899507       0.92828211 F F F
 P             25.65230003      36.53778370       6.49375108       0.00089194       0.00192401      -0.00103989       0.07679064       0.04045626       0.01996183      -5.27688084       0.92101936 F F F
 P             26.26445444      37.15022617       8.51558045       0.00057186      -0.00102897      -0.00039116      -0.11630844       0.08932523      -0.08576670      -5.27244586       0.92572701 F F F
 P              8.90507717      16.44017958      43.69441984      -0.00151051      -0.00093053      -0.00147557      -0.04780496       0.10234458      -0.26750072      -5.37501471       0.94408242 F F F
 P              9.93461832      15.52099481      41.99256748      -0.00027015      -0.00228930      -0.00006213       0.08421688      -0.24381167      -0.06288624      -5.21406061       0.93510481 F F F
 P              7.77031650      15.91411566      41.86210884      -0.00216505      -0.00026616       0.00038159       0.18258911       0.14425017       0.19145883      -5.33055925       0.92067355 F F F
 P              9.22728322      17.57492585      41.82381433      -0.00270558      -0.00131938      -0.00027597      -0.17776236       0.05192731       0.11266367      -5.29632657       0.92442557 F F F
 P             42.19121264      41.46601250       4.86552472      -0.00090733       0.00111971      -0.00013335      -0.22364215       0.16573464       0.07235794      -5.38909695       0.94038833 F F F
 P             43.64917428      39.85720696       4.98882775      -0.00081880       0.00124492      -0.00219901       0.16118765      -0.54242512      -0.10619862      -5.24001540       0.93011228 F F F
 P             44.11362667      41.77684232       5.87438176      -0.00071722      -0.00018822      -0.00174820       0.24114430       0.38569192       0.05766598      -5.24847316       0.92569730 F F F
 P             42.61756699      40.49980971       6.81339159       0.00063928      -0.00024455      -0.00182122      -0.14135497       0.03649856      -0.06273226      -5.38538852       0.93286730 F F F
 P             37.14876473      46.25027388       8.04792632      -0.00550471       0.00028695      -0.00313987      -0.00388878      -0.21319625       0.12675134      -5.30320735       0.92597040 F F F
 P             37.83935159      46.14064591       5.97973400       0.00159228      -0.00029877      -0.00114591       0.10968565       0.00182967      -0.13483671      -5.25734015       0.93362642 F F F
 P             39.01296139      45.15218763       7.57271508      -0.00250458      -0.00130423       0.00225297      -0.32095316       0.00287520      -0.07697101      -5.33587324       0.94156539 F F F
 P             37.05049673      44.32532769       6.94705941      -0.00170216      -0.00081751      -0.00067428       0.07668020       0.15780766       0.14299034      -5.38335491       0.94154222 F F F
 P             36.59674702      41.36276793       0.95865927       0.00327145      -0.00406162      -0.00025042      -0.63859577      -0.29694974      -0.10178095      -5.35094060       0.93737952 F F F
 P             36.20931034      39.23998006       0.46745971      -0.00276806      -0.00257883       0.00122111      -0.00734418       0.02969798      -0.22177366      -5.28591791       0.93194835 F F F
 P             35.18851602      40.15106696       2.16326657      -0.00086023       0.00116420      -0.00047884       0.02401196       0.17042582       0.21091302      -5.26840376       0.94306749 F F F
 P             34.59469414      40.73035999       0.12614216       0.00057023       0.00017595      -0.00082066       0.63735694       0.06400582       0.20351826      -5.35879883       0.92332650 F F F
 P              7.71769274      11.43615469      46.45490360       0.00017613       0.00210510       0.00168952       0.18201607       0.45597150      -0.16152854      -5.32791190       0.92065610 F F F
 P              6.50433898      13.27282774      46.41619112      -0.00052120       0.00277687       0.00033378      -0.10529351       0.00577230      -0.07993598      -5.22884829       0.91894108 F F F
 P              8.63334181      13.41236015      46.89822199      -0.00206373       0.00045235       0.00113910       0.10072285      -0.25094564       0.02633505      -5.31265412       0.93682970 F F F
 P              8.02245554      12.94821563      44.84433989       0.00295290       0.00115229       0.00072684      -0.12729113      -0.18197070       0.10971459      -5.31334216       0.93668861 F F F
 P             38.39224600      42.98143985      10.28160059      -0.00189307      -0.00200663       0.00274288       0.01771769      -0.23263760       0.17366986      -5.32612091       0.94611991 F F F
 P             39.56437769      44.19878391      11.68781237       0.00105286      -0.00188457      -0.00030429      -0.23657617      -0.10930805       0.10656378      -5.32262610       0.92112766 F F F
 P             37.35558855      44.35217187      11.62953950      -0.00235213      -0.00281279       0.00125990      -0.04358079       0.27779669       0.01486750      -5.24635350       0.92564195 F F F
 P             38.28396880      42.56075544      12.47527101       0.00041331      -0.00135525       0.00177909       0.19621080       0.11424936      -0.39219135      -5.29964887       0.93561678 F F F
 P             11.19473474      19.94595616      44.43852472       0.00116890       0.00064875      -0.00167431      -0.23521069      -0.19745443       0.01955208      -5.29015969       0.93969984 F F F
 P             10.98821539      22.08088372      44.97779664       0.00070215       0.00086558      -0.00090374       0.16833474      -0.19978295       0.06091479      -5.33690817       0.92056771 F F F
 P             12.34134466      20.75482045      46.12974114       0.00059246       0.00011723      -0.00054035      -0.11038443       0.07187422       0.03657009      -5.31099089       0.92392509 F F F
 P             12.84356602      21.31546474      44.06694234      -0.00186278       0.00151207      -0.00408887       0.15123992       0.18182322      -0.08697649      -5.24305958       0.91932740 F F F
 P             33.41350248      39.48089453      10.56942494      -0.00022099      -0.00237261      -0.00039911      -0.15335368      -0.24259605      -0.07181945      -5.26656270       0.92756282 F F F
 P             35.15292381      40.51706721      11.40154246      -0.00095027      -0.00071766      -0.00080646       0.14818730       0.05320557      -0.04464936      -5.32450003       0.93145113 F F F
 P             34.86737839      40.41009259       9.20311438      -0.00125704      -0.00037152      -0.00069427       0.06300512       0.08324830       0.15691187      -5.38678292       0.94242813 F F F
 P             33.53887897      41.65413277      10.45265120      -0.00067979      -0.00179700       0.00054627       0.04379614       0.16374916      -0.08338698      -5.27226527       0.91853464 F F F
 P             34.83854979      36.16300146       4.10133175       0.00017184      -0.00061104      -0.00103099       0.22399102       0.18856200       0.04088693      -5.22838008       0.94274473 F F F
 P             34.76144069      34.01583218       3.63153470      -0.00046876       0.00028823      -0.00260179      -0.11410016       0.02154134       0.00295004      -5.38624242       0.92326336 F F F
 P             33.51010125      34.85371772       5.25894606       0.00026242      -0.00238131       0.00043913       0.06566353      -0.16157612       0.19064627      -5.30673372       0.93418026 F F F
 P             33.04076966      35.33860819       3.18596709      -0.00215975      -0.00018077      -0.00027189      -0.09272734      -0.12372790      -0.35236786      -5.27726821       0.92287969 F F F
 P             19.36794818      37.39006078       7.91925099       0.00077806       0.00000929      -0.00095059      -0.14059999      -0.16578850      -0.07104211      -5.24460451       0.93548540 F F F
 P             20.97737967      38.86471451       7.94236369       0.00015410       0.00140341       0.00015404       0.25543754       0.16610579      -0.19288592      -5.30551196       0.93663565 F F F
 P             18.88297881      39.53017213       7.73798647       0.00163084      -0.00026494      -0.00083418       0.05809777       0.00567257      -0.07694097      -5.34538116       0.92356228 F F F
 P             19.61902435      38.71754729       9.64772710      -0.00121452       0.00101784       0.00040417      -0.13134138       0.01476243       0.26897129      -5.26731433       0.92400768 F F F
 P             40.59993448      45.38831147       1.44194569       0.00123374      -0.00078056       0.00044212       0.13062313       0.00829893      -0.17989226      -5.26610736       0.91726034 F F F
 P             40.02997653      46.61002270       3.17110758       0.00156140       0.00277788       0.00205570       0.06725575       0.13753184       0.03562716      -5.26819290       0.93100015 F F F
 P             38.49667320      45.47472102       2.07608215      -0.00069200       0.00149537       0.00109522      -0.13994912      -0.05189772      -0.01738386      -5.34561911       0.92647331 F F F
 P             39.98985130      44.41835978       3.30769790      -0.00003289       0.00069961       0.00009712      -0.05220522      -0.12684940       0.03480168      -5.33256607       0.94017655 F F F
 P              7.80054653      19.58182706      46.07360403      -0.00057187       0.00020854       0.00062501       0.21291682       0.08442725       0.07568396      -5.30153332       0.93222428 F F F
 P              6.61027206      17.78200749      46.42745866      -0.00134439       0.00086231       0.00040423      -0.02456673      -0.20776672       0.07961470      -5.24976744       0.92459728 F F F
 P              6.87185300      19.24144918       0.48602972       0.00053521       0.00035166      -0.00093037      -0.09650957       0.07992941      -0.35294614      -5.33086426       0.92137698 F F F
 P              5.62476520      19.73187761      46.28622617      -0.00015719       0.00071978       0.00268600      -0.00981826      -0.01115811       0.24555260      -5.26338230       0.91712956 F F F
 P             32.69965128      40.21851847       6.38322388       0.00190330       0.00133894       0.00171978       0.15281952       0.15753510       0.29116028      -5.27817006       0.93322430 F F F
 P             32.37357602      38.08156587       6.79000536       0.00282510       0.00396980       0.00182153       0.05109024       0.12822373       0.09339699      -5.36579248       0.93406058 F F F
 P             30.87649461      39.24988155       5.68488395       0.00084347       0.00163138       0.00035304      -0.11261751      -0.09712379      -0.16059373      -5.29324721       0.91960770 F F F
 P             32.82738318      38.76193366       4.76298937       0.00338908       0.00119150       0.00192693      -0.08613214      -0.01644321      -0.11118741      -5.27774185       0.93526010 F F F
 P             32.85197787      43.64347308       3.06247857       0.00058282      -0.00024627       0.00081207       0.26422657       0.05977651       0.09001661      -5.30586140       0.92227341 F F F
 P             34.42544534      43.35321424       4.59183175       0.00162237      -0.00062434      -0.00178582      -0.06847239       0.10066562      -0.19730679      -5.32364072       0.94030425 F F F
 P             34.96304843      44.03664040       2.55795646      -0.00241205       0.00156462      -0.00114047      -0.15955283       0.10901645       0.28649876      -5.30471338       0.93691574 F F F
 P             33.88665283      45.38710241       3.93911492      -0.00061647      -0.00173107      -0.00066032       0.01113384      -0.20139224      -0.16070449      -5.28625434       0.92047942 F F F
 P             40.91772722      39.74974995      12.06623658       0.00084930       0.00080097       0.00167504       0.12967835      -0.15449832       0.26256068      -5.24152937       0.92464267 F F F
 P             38.86588077      39.23668190      11.46592970      -0.00140798       0.00262368       0.00172956       0.37049444      -0.07728428      -0.35425423      -5.33579020       0.94034609 F F F
 P             40.36899116      39.94448296       9.96637174       0.00111826      -0.00028145       0.00011034      -0.35064793      -0.03587650      -0.11914749      -5.32164834       0.94089181 F F F
 P             40.57148643      37.94002483      10.84302099       0.00048248       0.00064191       0.00059565      -0.11735715       0.06487637       0.17069852      -5.33004671       0.92625421 F F F
 P             42.10940125      35.29786465       5.43751746      -0.00155516      -0.00063289      -0.00100414       0.01610584      -0.00289834      -0.26610120      -5.24664713       0.91756995 F F F
 P             41.50565071      36.82429265       6.86147569      -0.00012192       0.00158588      -0.00285895      -0.27502977       0.07499013       0.18074393      -5.29642931       0.93075323 F F F
 P             41.18010107      37.17873696       4.71748107      -0.00297465      -0.00073108      -0.00123759       0.02018381      -0.16039222      -0.00341225      -5.35986306       0.94645904 F F F
 P             39.96924631      35.65745759       5.77239277       0.00127260      -0.00076654      -0.00091570       0.16882071       0.09995385       0.05149157      -5.37187927       0.93609856 F F F
 P             10.70059989      17.63295554       0.91469531       0.00219245      -0.00038257       0.00020218      -0.27438886       0.09949724      -0.08531914      -5.29365570       0.92696688 F F F
 P             11.31320455      15.55231107       1.21769694      -0.00022809       0.00092703       0.00192368       0.06671769      -0.00154414       0.06101030      -5.30986026       0.92680309 F F F
 P             11.03694660      16.31388233      46.73981252      -0.00241918      -0.00174643       0.00111531      -0.03564420       0.14262088       0.05991508      -5.35168482       0.94502644 F F F
 P             12.72358290      17.02927541       0.39538708      -0.00034425      -0.00164373      -0.00206218       0.19383372      -0.12340995      -0.07619648      -5.29870077       0.92589431 F F F
 P             42.44755086      45.09771751       5.85333604       0.00186045      -0.00082131       0.00024426       0.19729934       0.11763066       0.22573158      -5.30140440       0.94266127 F F F
 P             43.09999933      45.19951778       7.96668381      -0.00020125      -0.00023843      -0.00060340      -0.01907946       0.17606728      -0.30596493      -5.34480366       0.92556786 F F F
 P             44.11217124      46.43568851       6.42769132      -0.00085568       0.00088990      -0.00075223      -0.16405699      -0.17248434       0.11913838      -5.27534057       0.91838908 F F F
 P             42.05013834      46.90847074       7.04274768      -0.00122806      -0.00205652      -0.00052495       0.04376644      -0.09226892      -0.00368298      -5.24338787       0.92930543 F F F
 P             20.99156098      39.51267156       3.72754508      -0.00150359       0.00010038      -0.00091174       0.28268547       0.12315991       0.14961089      -5.25269324       0.92032867 F F F
 P             18.95641568      38.80146427       3.55048446      -0.00001311       0.00105440      -0.00219032      -0.45498467       0.04242861      -0.08138836      -5.19886527       0.92027462 F F F
 P             20.49885792      38.02912345       2.19253567       0.00223437      -0.00074641      -0.00069284      -0.00963697      -0.12370471       0.22220852      -5.31430326       0.91640571 F F F
 P             20.48018145      37.46667636       4.34895204       0.00036890       0.00118488       0.00015222       0.16772557      -0.06274699      -0.22462100      -5.32513586       0.92921720 F F F
 P             41.16265341      41.05656335       0.05056943       0.00477979       0.00014159      -0.00386258      -0.17617056      -0.34959135       0.49115180      -5.31331862       0.91996677 F F F
 P             40.60314922      38.93672897      47.31898766      -0.00477530       0.00030721       0.00126791      -0.08883747       0.14502049       0.24948953      -5.25919099       0.93146186 F F F
 P             42.07101748      39.47319037       1.31332485      -0.00096003      -0.00107017      -0.00050082      -0.03516204       0.09805349      -0.16965901      -5.28787451       0.93281442 F F F
 P             39.94827025      39.98218247       1.60494017       0.00019069       0.00502664      -0.00029170       0.30478735       0.08103596      -0.51907277      -5.39500663       0.94579262 F F F
 P             38.62737184      41.37196366       4.74476300       0.00155543       0.00070649       0.00309021      -0.06348379      -0.32219686      -0.01356279      -5.32189476       0.94523682 F F F
 P             36.69298138      40.73457945       5.55096294      -0.00068232      -0.00276988      -0.00044870      -0.13192179       0.10414849       0.29973557      -5.29403886       0.94580888 F F F
 P             38.14980289      39.21139575       5.00847786       0.00168775       0.00004291      -0.00094817       0.35714239       0.05786152      -0.08762525      -5.40157742       0.94385087 F F F
 P             38.55209538      40.50375823       6.76547259      -0.00031280      -0.00071075       0.00247336      -0.35496067       0.03060844      -0.13284926      -5.41450993       0.94443992 F F F
 P             11.72246486      11.27796771      44.90849126      -0.00017876       0.00014971      -0.00120483       0.20538926      -0.06968340      -0.08733277      -5.29513186       0.92810499 F F F
 P             13.76778891      12.04281614      44.41960970       0.00120470       0.00207692       0.00157982      -0.59675090      -0.03457428       0.21864453      -5.36771984       0.92639271 F F F
 P             11.95967707      13.20612467      43.87954941       0.00042396      -0.00015198       0.00054300       0.07174284      -0.07282877      -0.02605834      -5.25754098       0.94482360 F F F
 P             12.52094953      13.01807957      45.98071226      -0.00144253       0.00099658      -0.00168502       0.20858862      -0.06235545       0.01125282      -5.26175149       0.93960090 F F F
 P             23.18438454      36.02471508      10.15106629       0.00352611       0.00066457      -0.00098169      -0.02331198      -0.09712846      -0.06389655      -5.32277257       0.93226240 F F F
 P             22.86247663      33.88461877      10.61005255       0.00332788       0.00005175       0.00096421       0.02599124       0.10332327      -0.21551685      -5.28590477       0.91730381 F F F
 P             21.14574037      35.23953873      10.41835591       0.00271843      -0.00064098       0.00111368      -0.18512453       0.02731027       0.13547073      -5.21726539       0.93010893 F F F
 P             22.28147728      34.69737524       8.62974856       0.00206387      -0.00147964       0.00011123       0.20786698      -0.00541046       0.13251792      -5.31924812       0.92594050 F F F
 P             38.60056587      34.15889848       1.68493103       0.00123649      -0.00087341       0.00310796      -0.05057166       0.09906174       0.10146753      -5.30570166       0.92064471 F F F
 P             37.98024500      35.68068369       0.22870567      -0.00036078      -0.00296582       0.00205077       0.09070539       0.00717572       0.00862776      -5.31028229       0.92462053 F F F
 P             38.06204994      36.18737710       2.36378675      -0.00056941      -0.00132919       0.00158911      -0.09001061      -0.00309373       0.06539172      -5.33831065       0.94389826 F F F
 P             39.92774110      35.86774432       1.25426043       0.00060233      -0.00098216       0.00012552       0.04382023      -0.05256278      -0.11546275      -5.29573429       0.93609011 F F F
