     108
 Properties=species:S:1:pos:R:3:velocities:R:3:forces:R:3:local_energy:R:1:hirshfeld_v:R:1:fix_atoms:S:3 Lattice="64.7241677529       0.0000000000    0.0000000000    0.0000000000   64.7241677529    0.0000000000    0.0000000000    0.0000000000   64.7241677529" temperature=105.44509615 pressure=8.23917506 time_step=2.0000 time=38240.0000 energy=-571.581892 virial="0.82965881            1.90012158     -1.90389276      1.90012158     -0.73848111      2.42083767     -1.90389276      2.42083767      1.17509832" stress="-0.00000306          -0.00000701      0.00000702     -0.00000701      0.00000272     -0.00000893      0.00000702     -0.00000893     -0.00000433" volume=271143.641551 step=19120
 P             54.11583976      14.17103889      21.88787443      -0.00297504      -0.00182141      -0.00078475       0.07811968      -0.15578981       0.09804784      -5.36141939       0.94731854 F F F
 P             56.22926869      13.51933123      21.84308496       0.00028364       0.00355407       0.00366880       0.02093733      -0.00745575      -0.35088215      -5.26368207       0.93102303 F F F
 P             55.71857964      15.54641168      22.48293430      -0.00308788      -0.00138023      -0.00136482       0.00859968       0.03130611       0.20788119      -5.34696636       0.92783530 F F F
 P             55.24884902      13.79463965      23.74476581       0.00229710       0.00093994      -0.00033366      -0.14885843       0.24818388       0.20049736      -5.30695745       0.92576003 F F F
 P             52.03536499       7.39305714      24.48440221      -0.00033670       0.00068370       0.00045975      -0.11093786      -0.42260679       0.01129072      -5.26653042       0.93052675 F F F
 P             53.05219882       9.09658947      23.61724849       0.00131345      -0.00092964      -0.00191345       0.10710090       0.55783437       0.02831358      -5.24214131       0.93800080 F F F
 P             52.44524611       7.48254734      22.30282290       0.00265577      -0.00414877       0.00038077      -0.09722656      -0.35148529      -0.08398954      -5.33557306       0.93011854 F F F
 P             50.89709543       8.78313973      23.21122564      -0.00039894      -0.00002484       0.00077998       0.18232698       0.02461434      -0.01142020      -5.37708488       0.93839237 F F F
 P             13.14723351      13.28063748      12.53943236      -0.00044882       0.00017071       0.00004567       0.05984293      -0.10783424      -0.01827038      -5.26900435       0.91874752 F F F
 P             12.28235797      15.22599855      13.02366202      -0.00083717      -0.00248337      -0.00021599      -0.05720945       0.14267970       0.20647884      -5.24104324       0.92110604 F F F
 P             13.34723527      14.95997795      11.12640376       0.00031260       0.00169686      -0.00057885      -0.11335595      -0.04416134      -0.07443184      -5.31910785       0.93301814 F F F
 P             11.37443625      14.00511758      11.45883035      -0.00093049       0.00239394       0.00055990       0.06768094       0.03946462      -0.11525059      -5.31389678       0.93815202 F F F
 P             54.31776094      16.08172905      18.63948432      -0.00060695      -0.00255378       0.00047604       0.43844974       0.33508825      -0.08517482      -5.26503484       0.93120267 F F F
 P             52.31644690      15.26787658      18.68612205      -0.00203963       0.00013891       0.00085392      -0.60963457      -0.03876183       0.14402970      -5.26996848       0.94000802 F F F
 P             53.26788662      15.62701972      16.75687490      -0.00345798       0.00061006       0.00040858       0.12727208       0.09073220      -0.08629574      -5.32176031       0.91566182 F F F
 P             54.00277587      14.01380970      18.06284340       0.00024532       0.00080523      -0.00023825       0.04871585      -0.33985033      -0.06580267      -5.36527919       0.93529271 F F F
 P             60.25620242      61.35309125      57.25618825      -0.00006253      -0.00144576       0.00038940       0.12230023       0.14690462      -0.11669399      -5.21575215       0.92427037 F F F
 P             59.38682462      63.03859623      58.38614819       0.00042556      -0.00033808      -0.00246074       0.03009394      -0.08609971      -0.10717956      -5.29355713       0.92603079 F F F
 P             58.29153721      61.13302754      58.18430008      -0.00024790      -0.00059267      -0.00019698       0.08703758       0.03717914       0.23525853      -5.30482463       0.92463816 F F F
 P             60.12684281      61.25218151      59.43881052      -0.00002445       0.00053231       0.00120888      -0.23741260      -0.08679636       0.01918478      -5.26459268       0.91720148 F F F
 P             48.52051139      15.24356926      19.56146836       0.00186537       0.00344715      -0.00202955       0.14412869       0.19115317       0.11404418      -5.30107733       0.94237712 F F F
 P             46.42620971      14.59531709      19.36603284       0.00261008      -0.00134279      -0.00059643       0.25455273       0.01701436      -0.45527912      -5.38314639       0.93256567 F F F
 P             47.11217132      16.44564892      18.36313398      -0.00050479      -0.00053237      -0.00002249       0.00282474      -0.04632012       0.19347649      -5.26233654       0.92549716 F F F
 P             47.83402720      14.51503170      17.61813581       0.00288660       0.00032034       0.00060256      -0.33243248      -0.17975956       0.28158420      -5.30215864       0.92450977 F F F
 P              0.47537803       8.90429829      44.26172430      -0.00061065       0.00258412       0.00004735      -0.00352591      -0.07910157       0.05889192      -5.28043905       0.91681847 F F F
 P             64.38419010       9.56603575      46.19286580       0.00247636      -0.00102145       0.00119949       0.12575287      -0.07785600       0.03292729      -5.26911095       0.92383078 F F F
 P             63.89875444       7.56390400      45.43811604      -0.00235251      -0.00085615       0.00081100      -0.22854150      -0.08092314      -0.15432245      -5.21535983       0.91667750 F F F
 P              1.19850094       7.98259889      46.13403575       0.00084546      -0.00161319      -0.00031439       0.10073727       0.21911885       0.06646681      -5.28809728       0.92324150 F F F
 P             54.79239785       8.89721865      19.26211383       0.00008708      -0.00243795       0.00123598       0.13957482      -0.24454903      -0.04142945      -5.30291255       0.92463307 F F F
 P             56.10008353      10.63850896      19.04886339      -0.00546260      -0.00038900      -0.00019794       0.20650660       0.12708122      -0.35524017      -5.23886164       0.92516224 F F F
 P             54.52814507      10.63797340      20.53843811      -0.00069874       0.00044776       0.00085050       0.18372424      -0.00604048       0.38991585      -5.24964358       0.94771175 F F F
 P             56.33503383       9.35060808      20.80129561       0.00165917       0.00388739       0.00315506      -0.51740674       0.09756294      -0.02251259      -5.39237473       0.92218397 F F F
 P             16.68737721      38.70483305      24.10868227       0.00056160      -0.00132609       0.00022860       0.16730110       0.17414744      -0.00865650      -5.17837143       0.91762798 F F F
 P             14.83810794      39.55376584      24.94843715       0.00078121       0.00017520      -0.00091491       0.05534654      -0.31151921      -0.53372906      -5.33521465       0.92328124 F F F
 P             14.87936005      38.73584368      22.85941340       0.00103647      -0.00035068      -0.00026669      -0.00115964       0.03721796       0.58195478      -5.37367879       0.94442620 F F F
 P             15.04116701      37.38247654      24.62046889      -0.00138532       0.00052863       0.00276182      -0.27439526       0.11238580      -0.15438118      -5.26389982       0.92486822 F F F
 P             46.39546501      13.74912188      25.18905229       0.00367331      -0.00378632      -0.00015113      -0.42706489       0.16690706      -0.07978145      -5.33657080       0.93101348 F F F
 P             47.13149860      14.90887785      23.48259271      -0.00088561       0.00473259       0.00153498       0.22728929       0.04860975      -0.10826855      -5.26799603       0.94398572 F F F
 P             46.69079903      12.77030434      23.26741213       0.00399028       0.00219778      -0.00314016       0.13749253      -0.32297466      -0.33368465      -5.25930247       0.93152232 F F F
 P             45.05465166      14.21301958      23.44595666      -0.00008840      -0.00282330       0.00200643       0.09465505      -0.01782902       0.39534824      -5.36274430       0.92259328 F F F
 P             55.94537637      62.91017234      55.01317354       0.00094333       0.00169599      -0.00151207       0.07666846       0.35528043      -0.28115048      -5.24786212       0.92161962 F F F
 P             56.71659250      64.20956259      53.36402003       0.00291248      -0.00103084       0.00403102       0.09019184      -0.37013685       0.89255450      -5.35047743       0.92802009 F F F
 P             56.85706585       0.14482677      55.48076491      -0.00055356       0.00002898      -0.00238256      -0.00645080      -0.24170772      -0.31584448      -5.29272914       0.93206702 F F F
 P             58.10488484      63.18687426      54.78865193       0.00125244       0.00097031       0.00222181      -0.14301885       0.26201268      -0.34140216      -5.23577348       0.93779763 F F F
 P             11.01663610      38.33134813      24.00790462       0.00058545       0.00033136      -0.00106440       0.05965596       0.06307477       0.20387000      -5.20605832       0.92881168 F F F
 P             11.45575883      36.81070481      22.50608845       0.00044115       0.00014434      -0.00012115       0.03006057      -0.01357661      -0.08404428      -5.23433258       0.93024788 F F F
 P              9.36823354      37.25691482      23.02695388       0.00209117      -0.00094308      -0.00011451       0.36220821       0.50286804      -0.38677980      -5.31197783       0.91801208 F F F
 P             10.61765394      38.76535275      21.89256065      -0.00326926      -0.00052556      -0.00015948      -0.38355499      -0.58142743       0.28583492      -5.36579181       0.92891112 F F F
 P             48.37416806      15.66078292      27.68375827      -0.00052129      -0.00331593      -0.00133201      -0.08602926      -0.00024485      -0.08856910      -5.24947929       0.93209124 F F F
 P             50.02328712      17.04276598      28.10474129      -0.00021203      -0.00029913      -0.00077629      -0.15490836       0.20804382      -0.02276882      -5.27965334       0.93107830 F F F
 P             49.39159084      16.70825186      26.01083892      -0.00147697       0.00117734      -0.00215680      -0.35706737       0.28392526       0.40042419      -5.38695291       0.95126897 F F F
 P             48.06008830      17.84156981      27.44208770       0.00051067       0.00195723       0.00292158       0.56126893      -0.39218452      -0.30358523      -5.34281963       0.92519527 F F F
 P             10.15713273      17.50079462      10.34754279      -0.00023924      -0.00062904       0.00066571      -0.04290856      -0.24695630       0.20910710      -5.29849040       0.92834615 F F F
 P              9.21448359      18.26768574       8.54354961      -0.00049948      -0.00032293      -0.00240151      -0.14296950       0.24445865      -0.31375479      -5.23427594       0.91563450 F F F
 P             10.96653472      16.95814057       8.39116395       0.00094867       0.00036031       0.00141221       0.40365122       0.10223311      -0.18920265      -5.28783119       0.92973750 F F F
 P              9.05023176      16.13861896       8.99605917      -0.00109075       0.00021629       0.00034275      -0.20238682      -0.10206508       0.31435622      -5.30344769       0.92418744 F F F
 P             15.35220726      35.88861148      18.03112416       0.00051808      -0.00157391       0.00012137      -0.00945071      -0.09992673      -0.05825079      -5.23122643       0.91722726 F F F
 P             13.86737821      37.00586173      19.21616470      -0.00063759      -0.00099829       0.00019939       0.15463374       0.03561124       0.08428690      -5.33602501       0.92923615 F F F
 P             15.62004761      36.09256029      20.20491694      -0.00072295       0.00133378       0.00091937      -0.10432752       0.06750128      -0.04751314      -5.27518525       0.92515903 F F F
 P             15.88979642      37.83681404      18.88485583      -0.00174429       0.00059379      -0.00135162      -0.08474694       0.05313408       0.09406225      -5.29569544       0.92655758 F F F
 P             50.10500537      22.72575794      24.43757676      -0.00230882      -0.00066025       0.00007467       0.73320092       0.03192661      -0.07356688      -5.22259590       0.91729175 F F F
 P             49.01962670      22.90506821      26.30666280       0.00585611      -0.00273899       0.00266901       0.00359155      -0.06407220       0.18087989      -5.28243609       0.91575399 F F F
 P             48.12073433      21.93267737      24.56796463      -0.00327639       0.00235999       0.00102359      -0.77379593      -0.27665780      -0.08767269      -5.20427883       0.92634300 F F F
 P             49.74387876      20.91952255      25.65578109       0.00249774       0.00059389      -0.00274458       0.00042810       0.21042144      -0.03353356      -5.43025081       0.93622142 F F F
 P             13.66111665      42.24014152      21.55922237      -0.00012660       0.00268809      -0.00034996       0.08128871       0.00184109       0.02198763      -5.27323308       0.92501754 F F F
 P             13.55318291      43.08379505      19.53212165       0.00178190       0.00084997      -0.00125222      -0.13619416      -0.06220016      -0.01784828      -5.26062220       0.91712460 F F F
 P             15.04087326      41.53750303      19.98789534       0.00023031      -0.00244479       0.00236216       0.06352639      -0.04579002       0.10546537      -5.27711734       0.92710955 F F F
 P             12.90709447      41.00040451      19.91123268      -0.00062126       0.00298023      -0.00129338       0.01998209       0.06587405      -0.08861056      -5.32106797       0.93060638 F F F
 P              2.08017224       9.43636243      50.37927630      -0.00161062       0.00065374      -0.00074548       0.01712210       0.12806985      -0.13978934      -5.25705892       0.91878718 F F F
 P              3.27627228      10.32557875      48.75661174      -0.00052865       0.00021612       0.00251249      -0.05070406       0.19157183       0.41966541      -5.28782627       0.92372991 F F F
 P              1.22408347      11.00319971      49.08563208       0.00053945      -0.00168270      -0.00356933      -0.09678357      -0.00396865       0.06076427      -5.22870764       0.92785907 F F F
 P              2.77291872      11.52344428      50.57358922       0.00010568       0.00006685       0.00037036       0.13470964      -0.29680209      -0.34422133      -5.28693660       0.91793810 F F F
 P             53.54912239      16.80681527      26.33988133       0.00083994       0.00048631      -0.00258273       0.21100172       0.31698567      -0.06547472      -5.40509492       0.93580776 F F F
 P             54.92124133      18.37260161      25.58489830      -0.00255349      -0.00129610      -0.00059413       0.03206044      -0.21700805      -0.17463913      -5.26162706       0.92368736 F F F
 P             52.91884579      18.93259899      26.26499226      -0.00204443       0.00025038      -0.00138339       0.09572397      -0.12426202       0.19518957      -5.27805968       0.94096503 F F F
 P             54.47208243      18.27849291      27.71404257      -0.00048742      -0.00233085      -0.00191806      -0.20253524      -0.07465039      -0.02120430      -5.26686424       0.91828019 F F F
 P             52.91220588       9.93626727      28.23534267       0.00310607      -0.00171654       0.00079200      -0.19514899      -0.49325077       0.01210920      -5.34866218       0.92388060 F F F
 P             52.95736934       7.71659353      28.22244973      -0.00095586       0.00087199      -0.00054747       0.02356581       0.28365544      -0.13815988      -5.29987607       0.92208405 F F F
 P             51.59713725       8.76408980      29.57432777      -0.00036583       0.00101475       0.00277876      -0.00338884       0.16125399       0.23610185      -5.20153976       0.91728720 F F F
 P             51.20432319       8.77986850      27.42188953       0.00106991      -0.00028225       0.00170760       0.15803580       0.04193877       0.01689669      -5.25505569       0.93647556 F F F
 P             49.18271206      11.43701452      20.15122731      -0.00099907       0.00142403      -0.00093282       0.27859856      -0.33760682      -0.22861688      -5.38393621       0.93478092 F F F
 P             50.94027172      10.03525179      20.07997654      -0.00009175       0.00123863      -0.00175220      -0.39923572       0.45489320       0.11650597      -5.34271931       0.94108603 F F F
 P             50.66708815      11.54620719      18.50501542      -0.00082225       0.00089239      -0.00243187      -0.24761757       0.06718660      -0.28815267      -5.29976693       0.92984189 F F F
 P             51.20482182      12.18880184      20.50870643       0.00267928      -0.00295423      -0.00169700       0.15621536      -0.09529256       0.32009106      -5.24722863       0.94824747 F F F
 P             57.74635949      37.61900392      15.96756645       0.00088956       0.00018024      -0.00064837       0.07576945       0.03088189      -0.25514901      -5.27223912       0.91532193 F F F
 P             59.47066836      37.29866560      17.28922837      -0.00124179      -0.00043516      -0.00158497       0.18727049      -0.37902690      -0.10883426      -5.27269554       0.91528331 F F F
 P             58.08092849      38.89437778      17.70565200      -0.00030981      -0.00003372       0.00000190      -0.26036272       0.57617922       0.14178642      -5.18904939       0.91520630 F F F
 P             57.43306868      36.83509052      17.97573143       0.00025570      -0.00045664       0.00070362      -0.00266058      -0.22806303       0.22221061      -5.26220920       0.91530003 F F F
 P             60.25979384       1.34173927      53.24534934       0.00164310      -0.00012211       0.00268550       0.04682427      -0.14008861      -0.12792356      -5.29558818       0.92826291 F F F
 P             60.18892149       2.62780227      55.00352931       0.00062956       0.00351680       0.00005354      -0.14809046      -0.02294630       0.38371043      -5.23796275       0.92035058 F F F
 P             60.99002032       3.41399124      53.14724111      -0.00013539       0.00000439      -0.00181449       0.14360088       0.10545681      -0.26314930      -5.25091759       0.91596986 F F F
 P             58.83397901       3.01220512      53.31613849      -0.00199991      -0.00142772       0.00009317      -0.05936873       0.04081140       0.02074186      -5.31467592       0.92431968 F F F
 P             45.43419661      19.28267901      23.22276519      -0.00105352      -0.00235092       0.00124480      -0.34152010       0.27217099       0.28579632      -5.24713913       0.92102860 F F F
 P             46.56322760      19.81016777      21.41591432      -0.00013172       0.00190883      -0.00059904       0.20090064       0.10286843       0.07631777      -5.36939203       0.92331889 F F F
 P             47.37090345      18.35674517      22.88194985       0.00250078       0.00037254       0.00021777       0.36289509       0.08199100      -0.05039731      -5.33391645       0.94173703 F F F
 P             45.65733978      17.83326688      21.63106187      -0.00053740      -0.00153934       0.00235547      -0.17830724      -0.38630367      -0.30287513      -5.27190669       0.93459550 F F F
 P             49.87166215      12.01265676      25.57570584      -0.00197390      -0.00130636      -0.00061958       0.60446895       0.52762704      -0.00062463      -5.43013889       0.93735167 F F F
 P             52.03597572      11.91219715      25.11190014      -0.00327745       0.00102765      -0.00049473      -0.24414286      -0.04426528      -0.26282322      -5.24010529       0.94512074 F F F
 P             50.69551556      13.14750539      23.85911766      -0.00311081       0.00179671       0.00319009       0.17039129      -0.21084265       0.22471553      -5.36207338       0.94561931 F F F
 P             51.24346190      13.77244633      25.89576614      -0.00121609      -0.00261079       0.00301378      -0.43557424      -0.10067975       0.08734973      -5.28905452       0.93799931 F F F
 P             12.58720396      11.75915952       8.44444357      -0.00184431       0.00003519      -0.00208406      -0.14007075      -0.08104547       0.17783279      -5.28601185       0.92572678 F F F
 P             13.22319195      13.73998828       7.75578202       0.00063186       0.00103263      -0.00119570       0.05470984      -0.03192095      -0.19354529      -5.33611358       0.93023918 F F F
 P             12.86815153      12.09772279       6.32004512       0.00118753      -0.00031548       0.00019373       0.49339825      -0.08020007      -0.38151251      -5.20658440       0.91582803 F F F
 P             11.19156828      13.02679986       7.31183672       0.00079318       0.00166730       0.00082717      -0.38030273       0.16595622       0.37779752      -5.28745277       0.92555410 F F F
 P             51.09427496      16.85135640      22.22869943       0.00009770       0.00191562       0.00061115      -0.28874510      -0.35517264       0.15606878      -5.35943208       0.93946202 F F F
 P             52.73378501      18.07682604      21.49615281       0.00196147      -0.00048644      -0.00216715       0.24737063       0.20596570      -0.12562123      -5.33745787       0.93298962 F F F
 P             50.64483492      18.76002618      21.24599253       0.00054570       0.00022072      -0.00104876      -0.01097753      -0.02442711      -0.28911537      -5.33197488       0.92844158 F F F
 P             51.55965417      18.73784568      23.22039495       0.00198306       0.00010278      -0.00084007      -0.07997027       0.13925283       0.26512721      -5.30167936       0.94113037 F F F
