      32
 Properties=species:S:1:pos:R:3:velocities:R:3:forces:R:3:local_energy:R:1:hirshfeld_v:R:1:fix_atoms:S:3 Lattice="43.0070261957       0.0000000000    0.0000000000    0.0000000000   43.0070261957    0.0000000000    0.0000000000    0.0000000000   43.0070261957" temperature=766.50180845 pressure=58.47720014 time_step=2.0000 time=20000.0000 energy=-167.332245 virial="1.36416763            0.60109798     -0.81687078      0.60109798      1.46545725      3.45987412     -0.81687078      3.45987412     -0.26250992" stress="-0.00001715          -0.00000756      0.00001027     -0.00000756     -0.00001842     -0.00004350      0.00001027     -0.00004350      0.00000330" volume=79545.980676 step=10000
 P             39.16855155       6.69838944       3.04908622      -0.00133044       0.00298505      -0.00959806      -0.88276172      -0.79024629      -0.51448373      -5.26849752       0.91475600 F F F
 P             40.66360760       7.86748328       3.98171349      -0.00354120      -0.00176554      -0.00283902       0.60070761       1.07286803       1.84017491      -5.14922239       0.91299576 F F F
 P             40.86666647       5.65632386       3.98815853      -0.00240141       0.00082232      -0.00672571      -0.12994968       0.13975222       0.57418097      -5.36761283       0.92154339 F F F
 P             41.17998770       6.82724673       2.22140554       0.00575914      -0.00050588      -0.00326471       0.47764362      -0.30443370      -1.94674227      -5.10480476       0.91326487 F F F
 P             22.43957796      25.65852064      25.56115894      -0.00625379      -0.00167687       0.00179089       0.06427239       0.26724054       0.14447094      -5.24570887       0.91809508 F F F
 P             21.97770306      26.61278209      27.48822182      -0.00660643      -0.00064471      -0.00315504       0.06010274      -0.26759133       0.03384345      -5.20032188       0.91796382 F F F
 P             23.97764838      25.68591558      27.15692376       0.00129686       0.00177769       0.00334650      -0.32163460       0.52177003      -0.16896300      -5.29133221       0.91820112 F F F
 P             23.38198741      27.58517145      26.13957682      -0.00178457      -0.00295597       0.00146489       0.19734594      -0.52143840      -0.00932513      -5.25464658       0.91803990 F F F
 P             38.37700843       1.12808625       5.92549713      -0.00360175      -0.00806554      -0.00052875      -0.12025157      -0.20370787      -0.47790570      -5.02882729       0.92007582 F F F
 P             37.52390365       3.03197828       6.60609680       0.00175082      -0.00283844       0.00056574       1.11377572      -0.21277206       0.16277045      -5.26303026       0.92051083 F F F
 P             39.41305127       2.16756240       7.51214786      -0.00369960      -0.00027795      -0.00457270      -0.52166897       0.97984720      -0.87034063      -5.26962306       0.92026197 F F F
 P             39.41864057       3.03387722       5.38100109      -0.00380274      -0.00914571      -0.00673897      -0.53698973      -0.68163912       1.23233208      -5.32198447       0.93139920 F F F
 P              4.75922037      13.68533032      13.33677072      -0.00402822       0.00097367      -0.00061379       0.30058815       0.19238126       0.12935699      -5.22261193       0.91911288 F F F
 P              5.82133610      13.90059750      15.24956693      -0.01055071       0.00784789       0.00038494      -0.60650044       0.77224332       0.52432021      -5.08862848       0.91853812 F F F
 P              6.89735239      13.20206068      13.55229809      -0.00713699      -0.00184074       0.00301145       0.16876808       0.77909477      -0.99499995      -5.18203236       0.91833154 F F F
 P              6.17322423      15.39751521      13.60556390      -0.00503251       0.00116452      -0.00169356       0.13705708      -1.74369306       0.34146156      -5.38122148       0.91970795 F F F
 P              2.81040514      17.00628322      24.46913833       0.00691462       0.00482132       0.00251637      -0.78574861      -0.26789161       0.52662354      -5.25647614       0.91777524 F F F
 P              2.06150353      18.90347056      25.26200050       0.00407495       0.00129845       0.00692357       0.32294179       0.20168451       0.06545431      -5.18026947       0.91794917 F F F
 P              1.62115933      17.10784559      26.42222684       0.00714916      -0.00525330       0.00129494       0.59998363      -0.31834745      -0.84264977      -5.31021593       0.91804623 F F F
 P              3.72567833      17.80598892      26.24543379       0.01152426       0.00131926      -0.00464178      -0.13727670       0.38458308       0.25047845      -5.18882965       0.91792018 F F F
 P             19.65052116      42.05135822      13.37005622       0.00150412      -0.00055185       0.00175915      -0.85126206       0.01114095       1.34693039      -5.39613992       0.91895160 F F F
 P             18.84821275      40.91338720      15.16948360      -0.00177515      -0.00239948       0.00519230       0.31657355      -0.46011873      -0.55300057      -5.15990968       0.91788718 F F F
 P             18.84233488       0.04731182      15.24446678       0.00470595      -0.00238674       0.00329063       0.35817599       0.44613052      -0.61659258      -5.17738631       0.91785576 F F F
 P             17.48355742      42.01566502      13.88115975       0.00614051      -0.00438216       0.00092462       0.17651174       0.00284856      -0.17734782      -5.19019955       0.91819420 F F F
 P             36.67428829      23.75584172      30.45461411       0.00746820       0.00651478       0.00474095       1.27888327       0.38830253      -0.98422822      -5.08174798       0.91373015 F F F
 P             34.60481582      23.32834637      30.72714863       0.00642669       0.00242248      -0.00594825      -0.91905248       0.17418965       0.30035038      -5.27706323       0.91363886 F F F
 P             36.10052225      22.06239332      31.63497930       0.00553137       0.00600416      -0.00414146       0.15560619      -0.62613964       0.33549894      -5.24999589       0.91376141 F F F
 P             35.86308660      24.08275657      32.40564628       0.00403827      -0.00128557       0.00172039      -0.51536991       0.06357808       0.34826288      -5.33885124       0.91379614 F F F
 P              3.97777960      36.54286466       3.09297180      -0.00499724       0.00193408       0.00166336       0.15054338       0.09079839      -0.16883729      -5.26408125       0.91554838 F F F
 P              3.35972628      35.84677134       5.08382398      -0.00499086       0.00435891       0.00326891      -0.51249885      -0.09768012      -0.47968519      -5.40086841       0.91583205 F F F
 P              1.90849517      35.90911122       3.37264114      -0.00487530      -0.00124347       0.00667261      -1.24320639       1.51617444       0.56516264      -5.15487367       0.91487717 F F F
 P              3.41462723      34.46088635       3.36700405       0.00212419       0.00297522       0.00392957       1.60502598      -1.50908206       0.08341214      -5.06523007       0.91509086 F F F
