      32
 Properties=species:S:1:pos:R:3:velocities:R:3:forces:R:3:local_energy:R:1:hirshfeld_v:R:1:fix_atoms:S:3 Lattice="43.2191310369       0.0000000000    0.0000000000    0.0000000000   43.2191310369    0.0000000000    0.0000000000    0.0000000000   43.2191310369" temperature=563.03254666 pressure=-105.01412702 time_step=2.0000 time=40000.0000 energy=-166.672629 virial="-8.30425083           3.02235194     -0.31983691      3.02118770     -4.06928086     -2.74581392     -0.31911278     -2.74866369     -8.01268834" stress="0.00010287           -0.00003744      0.00000396     -0.00003742      0.00005041      0.00003401      0.00000395      0.00003405      0.00009925" volume=80728.724759 step=20000
 P             23.35935958      30.13948534      25.61308726       0.00093158       0.00214982      -0.00041005       0.65113332       0.15838462      -0.08019789      -5.30932096       0.91650519 F F F
 P             23.06922870      32.17952851      26.26692645       0.00549994       0.00401428       0.00121373      -0.54551986       0.49965138      -0.19136859      -5.14754431       0.91630676 F F F
 P             25.07158304      31.53982243      25.92820220      -0.00584363      -0.00199770       0.00290006       0.15562148      -0.68452446      -0.08024617      -5.26001516       0.91635083 F F F
 P             23.75929253      31.77604287      24.19992230       0.00056585      -0.00103137       0.00038511      -0.25900460       0.02708504       0.35292244      -5.30620740       0.91664460 F F F
 P             15.08386575      11.56614972      12.33241013       0.00049182      -0.00016586       0.00118759       1.21674573       0.13570698       0.35438292      -5.00791915       0.93234514 F F F
 P             17.05924264      10.37160803      12.90707418       0.00596382      -0.00197384       0.00125278      -3.09096251       0.14867289      -1.20765001      -5.36584640       0.93000702 F F F
 P             14.94594132       9.92308874      13.69655330      -0.00423800       0.00439331      -0.00557547       0.57167017      -0.35137266      -0.49739217      -5.10465717       0.92255501 F F F
 P             15.24703620       9.58817858      11.51121517      -0.00654718      -0.00360223       0.00352366       1.27001243       0.09568064       1.36953831      -5.24143816       0.92622164 F F F
 P             10.31701677      25.04115285      31.35992649      -0.00427202      -0.00635146       0.00288794       1.67964134      -2.07447843       1.11873398      -5.42568078       0.92119549 F F F
 P             12.39043275      24.37762646      32.22388104       0.00163150      -0.00377945      -0.00180984       0.27512172       1.04689239      -1.32672632      -5.18953654       0.93088367 F F F
 P             10.68380874      23.38813900      32.91894556      -0.00198921      -0.00250252      -0.00446327      -2.02433387       0.14381074       0.77531856      -4.96058852       0.92946978 F F F
 P             11.25643604      23.00187799      30.91771272      -0.00005370       0.00449995      -0.00077466       0.08138574       0.90519636      -0.53931663      -5.20554114       0.91917830 F F F
 P             17.24721215      12.58923901       9.72829383       0.00440027       0.00644844       0.00554127       0.78347692       1.42149404       0.93412653      -5.22885049       0.93304857 F F F
 P             17.34454172      14.65028670       8.97878955       0.00259575       0.00046145       0.00859861       0.95475002      -0.46347243       0.65224605      -5.15402319       0.92276055 F F F
 P             17.48798196      14.38413719      11.15124040      -0.00333390       0.00133674      -0.00816666       0.18547197      -1.25366284      -1.35610637      -5.27398520       0.92808774 F F F
 P             19.21421606      13.69617846       9.88251875       0.00156805       0.00205914      -0.00067537      -1.89670299       0.26810506      -0.24879360      -5.25963971       0.92334660 F F F
 P             13.37501338      25.02805514      37.59422840      -0.00723902       0.00230472      -0.00700959      -0.70965711       1.23934015      -0.81873772      -5.47813878       0.91474541 F F F
 P             13.20553492      23.70798370      35.94989975      -0.00397544       0.00394726      -0.00371002       0.77457103      -2.58802768      -0.92612716      -4.82541166       0.92697941 F F F
 P             11.57363535      24.98134536      36.23818674       0.00315991      -0.00213677       0.00464576      -1.01208503       0.40541099       1.16023928      -5.25262751       0.92536354 F F F
 P             13.37032361      25.73301913      35.41227961      -0.00542071      -0.00128885       0.00204176       0.93728602       0.91839186       0.56007251      -5.29023646       0.92534311 F F F
 P             25.08699136       9.25390714      32.16706034       0.00196077      -0.00392867      -0.00348518       1.78405317      -0.11028320       1.44448689      -5.00259933       0.91706793 F F F
 P             23.36939308       9.18202255      31.02772474      -0.00198683      -0.00290187       0.00186455      -2.46294523       0.80754090      -1.06395494      -4.88669809       0.91694105 F F F
 P             24.04921985       7.35037755      31.85158891       0.00694835      -0.00038032      -0.00391558      -0.17872081       0.41290656       1.45684516      -5.33983220       0.91674466 F F F
 P             23.15505188       9.04769429      33.28412977       0.00011678       0.00745296       0.00292982       0.85773670      -1.10996662      -1.83773989      -5.46438843       0.91847920 F F F
 P             12.76188390      25.03942955      22.56712613      -0.00490869      -0.00433885      -0.00001705       0.80917238       0.05573823      -0.23312923      -5.16254129       0.92116802 F F F
 P             13.72294190      25.96283693      20.80965474       0.00018627      -0.00488027       0.00247867       0.06022564      -0.07921412       0.39164512      -5.12072135       0.92115528 F F F
 P             14.13102408      26.77084977      22.82975666       0.00461620      -0.00329001      -0.00343344       0.52295776      -1.77412857      -0.73853712      -5.28634847       0.92120957 F F F
 P             14.96951899      24.68028533      22.13039814       0.00418884      -0.00290150      -0.00037449      -1.39429369       1.79828870       0.57695311      -5.32957880       0.92169846 F F F
 P              8.13697983      30.53591417      41.41233354       0.00576717      -0.00359268      -0.00393460      -2.17625677      -0.39292650       1.65707774      -5.39932810       0.92077403 F F F
 P              6.35765483      31.33090159      42.78229356      -0.00072038       0.00547154       0.00349333       1.18731051      -0.15081633      -0.62716171      -5.24818979       0.91913460 F F F
 P              5.98598358      30.32012039      40.90920969      -0.00001048       0.00340070       0.00672104      -0.18307854       0.15195659      -0.65788541      -4.94355449       0.91966072 F F F
 P              6.62592087      29.17355823      42.58137265      -0.00005675       0.00310429      -0.00390883       1.16981696       0.39309980      -0.37093329      -5.20164024       0.91898714 F F F
