     108
 Properties=species:S:1:pos:R:3:velocities:R:3:forces:R:3:local_energy:R:1:fix_atoms:S:3 Lattice="47.5553175259       0.0000000000    0.0000000000    0.0000000000   47.5553175259    0.0000000000    0.0000000000    0.0000000000   47.5553175259" temperature=497.40231722 pressure=23.20014264 time_step=2.0000 time=20000.0000 energy=-566.074824 virial="-3.29989000           1.83864523      1.94866951      1.83864523     -5.79739574      3.93746085      1.94866951      3.93746085      0.01028311" stress="0.00003068           -0.00001710     -0.00001812     -0.00001710      0.00005391     -0.00003661     -0.00001812     -0.00003661     -0.00000010" volume=107546.741727 step=10000
 P             15.61200216      13.96631640      19.93363717      -0.00160250      -0.00220734       0.00145773      -0.19821110      -0.11918624      -0.36940500      -5.20794404 F F F
 P             17.32778376      15.22749568      19.42710216      -0.00087457       0.00806547       0.00210680      -0.14334668       0.31343493       0.04881724      -5.24232529 F F F
 P             15.55944277      15.26253637      18.10453309      -0.00158436       0.00326273       0.00051737       0.02872353      -0.28864955       0.41924589      -5.29951735 F F F
 P             15.42928971      16.13781020      20.12829603       0.00070675       0.00349471       0.00319666       0.31283424       0.09440086      -0.09865812      -5.24019947 F F F
 P              6.53423871      10.93211334      26.91319472      -0.00148912      -0.00183303       0.00034311      -0.04667987       0.18882665       0.05080182      -5.19571759 F F F
 P              5.56295206       9.49428289      28.24377326       0.00080492      -0.00586442      -0.00058987      -0.09488560       0.58530611       0.26581951      -5.26087827 F F F
 P              5.51198262      11.70686663      28.72472430      -0.00691440      -0.00260599      -0.00172757       0.07596272      -0.79078309      -0.35068031      -5.31828518 F F F
 P              4.34435754      10.88333895      27.05180769       0.00080891      -0.00673937       0.00076299       0.06560276       0.01665033       0.03405898      -5.20910905 F F F
 P             10.15237386      16.00927461      23.92540997       0.00305555       0.00113058       0.00257074       0.00149143      -0.39430698      -0.43534318      -5.27137102 F F F
 P             11.68552967      17.40591037      23.23924895       0.00038234       0.00662417       0.00057670       0.19468219       0.20158139       0.07102714      -5.23054387 F F F
 P             10.17959246      16.73980559      21.80307925       0.00114623       0.00027112       0.00136117      -0.07461837      -0.41247978       0.29887211      -5.30694928 F F F
 P              9.58934105      18.04004790      23.45739678      -0.00634694      -0.00014072       0.00531962      -0.12155526       0.60520537       0.06544393      -5.17189931 F F F
 P             40.06263982      29.95982963      34.11828812       0.00056014      -0.00096876      -0.00698631       0.42669561      -0.45031517      -0.33952334      -5.08247347 F F F
 P             38.36541901      30.04451894      35.47332596       0.00314878      -0.00390432      -0.00257229       0.89929814       0.94791962       0.29177154      -5.36300607 F F F
 P             40.45302462      30.12110778      36.29414706      -0.00193085       0.00003561       0.00073331      -0.37837344      -0.41294056      -0.10567651      -5.24298926 F F F
 P             39.76328003      31.83426419      35.15782342      -0.00292680       0.00052432      -0.00248363      -0.94762031      -0.08466389       0.15342831      -5.22550878 F F F
 P             41.80863304      35.55112219      25.00926280      -0.00039624      -0.00462146      -0.00751508      -0.97591126      -0.38990698      -0.63865726      -5.35736712 F F F
 P             41.30485786      34.84463170      22.94502953      -0.00187734       0.00002481      -0.00534444      -0.06615906       0.03519509       0.57867248      -5.27077765 F F F
 P             39.66425534      35.10053474      24.40871895       0.00345166       0.00101767      -0.00814150       0.82138246      -0.35972894       0.30105018      -5.27331166 F F F
 P             40.68219637      36.81045373      23.61983859       0.00432067      -0.00262407      -0.00332704       0.22068785       0.71444083      -0.24106541      -5.03575512 F F F
 P              5.52556173      47.45530074      31.85099850      -0.00552377      -0.00185303       0.00223503       0.30387582      -0.40280933       0.06783138      -5.15527991 F F F
 P              4.39435360       1.56349962      31.05107475      -0.00342962      -0.00351620      -0.00399721       0.10141469       0.37134580       0.17066990      -5.25279049 F F F
 P              4.26071632       1.07338605      33.18229876      -0.00205108       0.01046796      -0.00642810       0.10468424       0.16638118      -0.05444134      -5.25953422 F F F
 P              6.13402732       1.95365030      32.39243496      -0.00184193       0.00561200      -0.00842071      -0.49754401      -0.14818819      -0.17637773      -5.32706603 F F F
 P             31.65601144      16.41910924      20.27320114       0.00248574       0.00082529       0.00425545      -0.31652825       1.04309832       0.71996933      -5.38203892 F F F
 P             32.55059969      17.43596117      22.04487345       0.00155581       0.00024431       0.00529034       0.19570025      -0.01302008      -0.33620925      -5.21482425 F F F
 P             31.84306315      18.65115913      20.31864285      -0.00311335      -0.00002922      -0.00122058       0.57186917      -0.25296956      -0.29131188      -5.19548227 F F F
 P             30.43463289      17.73721778      21.65335204      -0.00225100      -0.00157278       0.00074704      -0.45104117      -0.77710869      -0.09244820      -5.14470564 F F F
 P              5.30414819      41.86981879       5.36794744      -0.00312007       0.00276297       0.00443546      -0.14576035      -0.22098061      -0.15732415      -5.08867108 F F F
 P              6.10580908      42.69058834       7.21757956      -0.00388260       0.00370197       0.00306781       0.20483880       0.34211600      -0.50626218      -5.23831264 F F F
 P              7.48789593      42.05001682       5.59273410      -0.00131305      -0.00061224       0.00282435      -0.63713448       0.78426581       0.03313100      -5.29985895 F F F
 P              6.16420158      43.88700949       5.29651982       0.00161474       0.00294563      -0.00333815       0.57805603      -0.90540121       0.63045533      -5.32278014 F F F
 P             10.52004550      20.06761204      46.54049648       0.00519388      -0.00047088       0.00045472       0.06450498       0.16641983       0.03913494      -5.19834117 F F F
 P             11.50968667      20.92493202      44.77470976      -0.00156239       0.00215470      -0.00418142      -0.08133263       0.10575584       0.10771527      -5.20392243 F F F
 P              9.41850038      21.47341144      45.24644855      -0.00132520       0.00461859       0.00676201       0.55135016       0.22978643       0.35540833      -5.27357544 F F F
 P             11.11432018      22.20972219      46.54091712       0.00474062       0.00143583       0.00049885      -0.53452251      -0.50196210      -0.50225853      -5.30990569 F F F
 P              3.53120593      38.90356675      45.53848208       0.00243564       0.00294027       0.00182144       0.11492374       0.42650060      -0.00420084      -5.21679560 F F F
 P              2.33291534      40.41976235      44.41600364      -0.00521852      -0.00534677      -0.00281050       0.33824410      -0.37815989       0.15654891      -5.30150036 F F F
 P              3.35254116      38.76027954      43.34675977      -0.00190334      -0.00778305      -0.00162386      -0.30825969       0.05303177       0.18214118      -5.27864620 F F F
 P              1.61769351      38.37373504      44.66221123       0.00124777       0.00049948      -0.00106862      -0.14490815      -0.10137247      -0.33448925      -5.19369906 F F F
 P             22.17176977      37.01905719      40.90076844      -0.00165684      -0.00257213      -0.00412152      -0.03534540       0.47554332      -0.19874595      -5.35290001 F F F
 P             20.77136785      38.76873780      40.97772763      -0.00207189      -0.00612453      -0.00021528       0.63173389       0.10437264       0.20106334      -5.34851294 F F F
 P             20.04256748      36.80666690      40.51944707      -0.00183577      -0.00636318       0.00316569      -0.68893772      -0.84919039      -1.12157670      -5.06394449 F F F
 P             20.72100364      37.19582928      42.49864084       0.00688192       0.00183973       0.00100913       0.09254922       0.26927443       1.11925931      -5.17448523 F F F
 P             46.07450290       4.20594236      16.76991695       0.00052056      -0.00322656       0.00545611      -0.37539711       0.06666438       0.24246719      -5.30795992 F F F
 P             45.75165399       2.23659152      17.77513705      -0.00053696      -0.00529340       0.00532279       0.01355150       0.41315837       0.14245430      -5.36789266 F F F
 P             46.86745152       2.38873721      15.92742855       0.00030458      -0.00146988       0.00478946      -0.05758259      -0.66108665      -1.29089790      -5.07216158 F F F
 P              0.19445216       3.17490421      17.69241649      -0.00030654      -0.00465049       0.00497506       0.41942820       0.18126390       0.90597640      -5.20880048 F F F
 P             26.31541265      29.07381432      32.42909679      -0.00094592       0.00175611      -0.00227823      -0.11487144      -0.68435250      -0.31139741      -5.32424962 F F F
 P             28.29995763      29.53833509      33.11200588       0.00424650       0.00023459      -0.00234981       0.83574030       0.49164494       0.77726444      -5.06072871 F F F
 P             27.89512149      27.47295668      32.57736739      -0.00102390       0.00127893      -0.00062788      -0.54830359       0.18177530       0.02547442      -5.33902706 F F F
 P             28.04252496      29.02511341      31.03468000       0.00382138       0.00217485      -0.00581662      -0.17256528       0.01093225      -0.49134145      -5.23105187 F F F
 P             45.60259106      35.30197589       7.01191148      -0.00047522      -0.00067617      -0.00113345       0.26394504       0.04268582      -0.00572455      -5.21840133 F F F
 P             44.67187704      37.05872228       7.95089471      -0.00210471       0.00313632       0.00307796       0.03303993       0.08656682       0.04806010      -5.22341781 F F F
 P             45.86173661      37.31085341       6.09774548       0.00245268       0.00173177      -0.00004028      -0.34382458      -0.37090287       0.13958089      -5.32841108 F F F
 P             43.89317731      36.25874032       6.05913324      -0.00181368       0.00173341      -0.00200843       0.04683961       0.24165022      -0.18191644      -5.22880017 F F F
 P             15.14290166      30.90584911      14.37519869      -0.00022604      -0.00157903       0.00416218       0.11263608      -0.18330378       0.27155516      -5.14294412 F F F
 P             15.36758353      29.68953844      12.59397017       0.00187829       0.00095710       0.00185874       0.01593201      -0.18284302      -0.21422528      -5.08912305 F F F
 P             17.11422485      30.75126360      13.39955256      -0.00044455       0.00076766       0.00066955      -0.52807816      -1.12980565       0.68290026      -5.30870635 F F F
 P             16.17463767      28.93232615      14.50753583       0.00098461       0.00395559       0.00258359       0.39951007       1.49595244      -0.74023014      -5.35324947 F F F
 P             26.10912282      10.06966855      31.61987759       0.00272359       0.00076190      -0.00240525       0.31287981       0.29536958       0.71406640      -5.32454078 F F F
 P             27.62162486      11.17636400      32.90344304       0.00447806       0.00096262       0.00330848      -0.75495793      -0.79899326      -0.13452889      -5.37109224 F F F
 P             26.61666546       9.30388858      33.65754507       0.00103822       0.00046891      -0.00072731      -0.55092364       0.74422380       0.21624547      -5.23896979 F F F
 P             28.03200362       9.18067551      32.08501192      -0.00057483      -0.00263168       0.00196741       0.99300176      -0.24060012      -0.79578297      -4.98883908 F F F
 P              8.86574886      45.73345429      35.45669730       0.00239148       0.00141988      -0.00005866       0.58771503       0.26500354       0.80166251      -5.15755785 F F F
 P              7.14191264      44.99950686      34.45497998       0.00109909       0.00384827       0.00141983      -0.97789998      -0.35591993      -0.09124959      -5.17454437 F F F
 P              8.21938405      43.67069438      35.85629302       0.00154230       0.00378772       0.00759902      -0.02123937       0.13585093      -0.02461793      -5.26827555 F F F
 P              7.02922050      45.35101851      36.66554983       0.00255606       0.00793414       0.00298632       0.39899358      -0.03166400      -0.69347721      -5.35577176 F F F
 P              8.77367461      37.50043125      12.64857101       0.00329543       0.00167059      -0.00052040       0.89736171       0.36508062      -0.48748728      -5.28197326 F F F
 P             10.64006886      38.79397548      12.59253124       0.01196651      -0.00344745      -0.00591682      -0.51836998      -0.89961032       0.30292519      -5.27974170 F F F
 P             10.69129522      36.62038232      13.22016058      -0.00605938      -0.00905070      -0.00535153       0.10716491       0.55799314      -0.11049303      -5.19628614 F F F
 P             10.39003461      37.17206724      11.11051778      -0.00358173      -0.01169831      -0.00703293      -0.48615664      -0.02346344       0.29505512      -5.19204210 F F F
 P             33.80082163      37.81988667      43.63241026      -0.00354468       0.00433051       0.00137522       0.64268912       0.67147218       0.36849715      -5.15518608 F F F
 P             32.22276821      36.38629252      43.42138632      -0.00149166      -0.00035379      -0.00426437      -0.58206628      -0.50706475      -0.12938972      -5.22458367 F F F
 P             33.49160380      36.89546625      41.69945616       0.00528666       0.00367301      -0.00019986      -0.09888739      -0.14427447      -0.25569378      -5.28591078 F F F
 P             34.30320848      35.70976641      43.36410617      -0.00049819       0.00574712       0.00533769       0.03826455      -0.02013296       0.01658634      -5.31834637 F F F
 P              5.46975069      17.99157384       7.50637389       0.00294263      -0.00288346      -0.00559487       0.83502131       0.30280872       0.33188526      -5.26400372 F F F
 P              6.13996872      20.06414512       7.81148075      -0.00538700      -0.00571598      -0.00492491      -0.15718152       0.00958300      -0.02019003      -5.11805344 F F F
 P              5.80413538      18.76106313       9.55154461      -0.00211623      -0.00455679      -0.00586795       0.64092750      -0.11950914      -0.59541139      -5.25277370 F F F
 P              7.58939325      18.45253025       8.18697025       0.00030790      -0.00486432       0.00123792      -1.31876730      -0.19288257       0.28371616      -5.30749283 F F F
 P             32.52868255      14.23592539      40.21530064      -0.00013380       0.00031461       0.00043449       0.40008506      -0.16577352       0.08459771      -5.29029053 F F F
 P             30.58899826      14.18632094      39.26308396       0.00289430       0.00339225      -0.00049630      -0.40288177      -0.44099759      -0.89531567      -5.17735840 F F F
 P             30.69157997      14.48016705      41.38358148      -0.00574303       0.00336677      -0.00046511      -0.06743431       0.00707676       0.76544392      -5.24970728 F F F
 P             31.35174393      16.05412343      40.03381931       0.00452241       0.00275213       0.00397927       0.07023102       0.59969435       0.04527404      -5.26235456 F F F
 P             47.29934383       5.15012333       5.90638693      -0.01012803       0.00239635      -0.00205796       0.60050524      -0.10123565      -0.21814552      -5.22542940 F F F
 P             46.02483007       3.75604273       6.91989914      -0.00239446      -0.00267961      -0.00202107      -0.21608042      -0.52533915       0.30454069      -5.16006499 F F F
 P             46.92492722       3.17451585       5.00171205       0.00390460       0.00263772      -0.00069906       0.02973355       0.16753208       0.11598135      -5.26532195 F F F
 P              0.63835485       3.29823063       6.79868328       0.00155858       0.00576943      -0.00239211      -0.41415837       0.45904272      -0.20237653      -5.32882512 F F F
 P             12.29094690       0.54449736      28.62264825       0.00131323       0.00460246       0.00419281      -0.31714839       0.06061926      -0.46161977      -5.19458301 F F F
 P             12.18961486      46.42863725      30.03758417       0.00545321      -0.00097919       0.00055053       0.33100995      -0.07064722      -0.26193474      -5.32384085 F F F
 P             13.87947628      46.56808885      28.58126784       0.00504136       0.00363471       0.00268995      -0.38681812      -0.13871615       0.14848504      -5.32133458 F F F
 P             13.71525722       0.42851931      30.21999673       0.00003464       0.00239458       0.00061318       0.37295656       0.14874412       0.57506947      -5.14592918 F F F
 P             42.38336617      19.97186101      40.67493872      -0.00399096      -0.00320403       0.00177387       0.91868973      -0.49511850      -0.29610629      -5.12134504 F F F
 P             41.68502633      21.12596339      42.37663511      -0.00237161       0.00070194       0.00208624      -0.34161763      -0.11450225       0.03832272      -5.35231026 F F F
 P             40.80716628      21.37729594      40.38401000       0.00271723      -0.00360238       0.00300831      -0.40048960       0.64139345      -0.18291140      -5.20944771 F F F
 P             40.42730631      19.53303060      41.45332723      -0.00027052      -0.00197806       0.00072853      -0.17658250      -0.03177270       0.44069497      -5.29113009 F F F
 P             31.49427166      33.13655984       8.58438073      -0.00256282      -0.00531615       0.00532458       0.18750753       0.32454545      -0.05596294      -5.20576845 F F F
 P             30.77682409      31.10481092       8.45446158       0.00358819      -0.00537676      -0.00248368      -0.39639943      -0.24325449      -0.02668429      -5.19591791 F F F
 P             29.85663086      32.68608930       7.19450409      -0.00348574      -0.00112508       0.00793925       0.30267875      -0.31162193       0.12855732      -5.32637495 F F F
 P             31.90788699      31.92775269       6.78448067      -0.00033548       0.00366959      -0.00242006      -0.09378686       0.23033097      -0.04591008      -5.26616081 F F F
 P             15.24455796      32.15959479      37.88308865       0.00266625       0.00340754       0.00109884      -0.55145482      -0.07276208       0.13320926      -5.21216571 F F F
 P             15.89866837      34.03025510      36.94965884      -0.00114571       0.00302217       0.00140000      -0.03733784       0.01040625      -0.05768151      -5.29558536 F F F
 P             16.65405633      33.45570520      38.92173900       0.00320279       0.00110059      -0.00250748       0.06980090       0.04224582       0.12374951      -5.27369365 F F F
 P             17.25966952      32.32700718      37.15061274      -0.00068302       0.00413714      -0.00419351       0.51899176       0.02011001      -0.19927727      -5.21675193 F F F
 P             37.08704875       7.28200285      38.39836228      -0.00620474      -0.00276982      -0.00345678      -0.11756530       0.15673478      -0.12708310      -5.24647137 F F F
 P             35.92090452       9.06010676      37.78227256      -0.00480697      -0.00137220      -0.00225812       0.04203595      -0.30676544      -0.13983958      -5.24140802 F F F
 P             38.10157625       9.17226342      37.92018135      -0.00146079      -0.00112897       0.00697248       0.10249025      -0.12537003      -0.21294025      -5.21004243 F F F
 P             37.18152214       7.95057196      36.30503461       0.00961700      -0.00474723       0.00225129      -0.02696090       0.27540069       0.47986293      -5.30079785 F F F
