      32
 Properties=species:S:1:pos:R:3:velocities:R:3:forces:R:3:local_energy:R:1:hirshfeld_v:R:1:fix_atoms:S:3 Lattice="43.5042552600       0.0000000000    0.0000000000    0.0000000000   43.5042552600    0.0000000000    0.0000000000    0.0000000000   43.5042552600" temperature=537.58973912 pressure=58.30964677 time_step=2.0000 time=100000.0000 energy=-166.979941 virial="-3.33898839           1.30099318      5.87256580      1.30242483      6.15146553     -3.03313105      5.87278950     -3.03590158      1.86894243" stress="0.00004055           -0.00001580     -0.00007132     -0.00001582     -0.00007471      0.00003684     -0.00007133      0.00003687     -0.00002270" volume=82337.033410 step=50000
 P              2.06143364      37.52396453      42.75650476      -0.00573564       0.00463866       0.00380467      -1.67844542      -1.17751917       0.11539239      -5.26261095       0.92266814 F F F
 P             43.29343469      36.89641041      42.76859915      -0.00181370      -0.00456286      -0.00524037       2.30649278      -0.01857657       0.56038761      -5.30718261       0.92338250 F F F
 P              1.40511611      35.44963991      43.49094684      -0.00290225      -0.00318188       0.00088305      -0.33321576       1.41785134      -0.44805462      -5.23350354       0.92285573 F F F
 P              1.00705012      37.30958227       1.13289445       0.00846774       0.00406630      -0.00145087      -0.29478864      -0.22174421      -0.22754136      -5.03763060       0.92237599 F F F
 P             27.52563395      31.86123236      35.76240517      -0.00608313      -0.00498268       0.00749454       0.59962343       1.25086240       0.35193981      -5.16262364       0.91535178 F F F
 P             28.16394893      30.15770956      36.92517924      -0.00422659      -0.00123311      -0.00582347       1.17598098       0.04542383       0.73366883      -5.09855496       0.91547645 F F F
 P             26.25891108      31.09680686      37.37093686       0.00005019       0.00139089      -0.00410833      -0.04483781      -0.49266883      -1.15486873      -5.43999227       0.91582400 F F F
 P             26.70549253      29.96586501      35.41487463       0.00189668       0.00306309      -0.00466821      -1.73059438      -0.80366114       0.06916680      -5.19323540       0.91464460 F F F
 P              3.78503620      42.01314898      22.87106868       0.00338853       0.00384953      -0.00377348      -0.05292793      -0.24288955      -0.58058725      -5.36490209       0.92424636 F F F
 P              3.76126725       0.20527614      21.48351233      -0.00470114       0.00139349      -0.00016428      -2.07407695      -0.03971900      -2.26246937      -4.99163643       0.92403357 F F F
 P              4.66471417       0.40679694      23.35072455       0.00879835      -0.00143981       0.00626971       1.74017698       0.51620351       2.02170480      -5.09824697       0.91337793 F F F
 P              5.58509351      42.65451849      21.76287790      -0.00485538       0.00264866       0.00115507       0.39602831      -0.20738639       0.80948458      -5.44115438       0.92052497 F F F
 P             43.38835464      30.08376068      16.29129970      -0.00012522       0.00450684       0.00070729      -0.43492429       2.30429130       0.65459916      -4.89551052       0.91546504 F F F
 P              0.54116314      29.21944945      14.45611764       0.00902299      -0.00155565       0.00740097      -0.90184909      -0.33438751      -0.25906620      -5.34457331       0.91504782 F F F
 P              0.18902458      28.01912952      16.20500806       0.00684347       0.00029073      -0.00383799      -0.24162282      -1.84067964      -0.24666156      -5.13814916       0.91488996 F F F
 P             41.88073564      28.91587368      15.21358024      -0.00015880      -0.00265776       0.00100145       1.58004882      -0.12824874      -0.14609322      -5.48269454       0.91591124 F F F
 P             12.35463635      20.48542303      19.51670388       0.00405632       0.00248452      -0.00332877       0.06418571      -0.33153275      -1.24512250      -5.36120235       0.91867433 F F F
 P             11.88130191      19.61031735      17.46110032      -0.00347388       0.00016778       0.00522558       0.90507726       0.82083615       1.08868455      -5.40151265       0.91893695 F F F
 P             12.18943830      21.78932513      17.76597468      -0.00527026       0.00646262       0.00546316      -1.39833475       0.84782059      -0.09786109      -4.98946997       0.91799520 F F F
 P             13.89443341      20.54428525      17.92853072      -0.00100787      -0.00113610       0.00399968       0.43034597      -1.33640958       0.25363486      -5.16805450       0.91776525 F F F
 P             10.51226582      16.34665440      38.21542087       0.00176335      -0.00215756      -0.00207752      -0.00182802      -0.90358346      -0.30235554      -4.95174855       0.91992236 F F F
 P             10.51954999      18.10938021      36.95679139      -0.00015442      -0.00142319       0.00030764       0.89747903      -0.11150245       0.61765498      -5.25455885       0.92024731 F F F
 P             11.17492544      18.17647303      39.10691924       0.00191015      -0.00012259      -0.00226184       0.95528944       0.04940619      -1.25645095      -5.26774459       0.91974152 F F F
 P             12.48848812      17.09349743      37.49572850      -0.00302176      -0.00042987      -0.00388442      -1.85116213       0.96553568       0.94120482      -5.38292044       0.92116125 F F F
 P              2.33315098      41.19233024      18.83083679       0.00553503      -0.00626372      -0.00427941      -0.38494434       0.14390081      -1.95851605      -5.40101433       0.92073617 F F F
 P              4.14740198      39.98341591      18.42548612      -0.00197355      -0.00039790       0.00262139       1.14059647       0.87047053      -1.91907073      -5.14104216       0.91462454 F F F
 P              3.16821828      39.94172231      20.24573058      -0.00324264      -0.00129509       0.00323604      -0.18837974      -1.71667848       3.56581240      -4.77089912       0.92985968 F F F
 P              2.27883574      38.95020951      18.50259685       0.00063274       0.00244409      -0.00332115      -0.57638645       0.67510643       0.32723404      -5.44740352       0.91382164 F F F
 P             24.05412743      40.08158065      19.69243034      -0.00323938      -0.00364425       0.00006078      -0.04324600       0.15978932       1.06094004      -5.30892567       0.91861358 F F F
 P             23.59005638      40.27183197      21.93546758      -0.00372438      -0.00100417       0.00145116       1.08224352      -0.23755688      -1.13502889      -5.35933370       0.91865873 F F F
 P             23.14218410      38.47758987      20.82384474      -0.00092348       0.00084088      -0.00166382      -0.42795650      -0.67053654      -0.20857894      -4.98117961       0.91845141 F F F
 P             25.26000292      38.90089958      21.13897677       0.00426959      -0.00075953      -0.00119440      -0.61116290       0.74811438       0.28262113      -5.30072915       0.91860418 F F F
