      32
 Properties=species:S:1:pos:R:3:velocities:R:3:forces:R:3:local_energy:R:1:hirshfeld_v:R:1:fix_atoms:S:3 Lattice="43.0280387281       0.0000000000    0.0000000000    0.0000000000   43.0280387281    0.0000000000    0.0000000000    0.0000000000   43.0280387281" temperature=523.40819492 pressure=66.57394669 time_step=2.0000 time=20000.0000 energy=-167.517991 virial="2.37870408            1.51723138     -0.49511847      1.51723138     -0.00824018     -0.20362267     -0.49511847     -0.20362267      3.36535189" stress="-0.00002986          -0.00001905      0.00000622     -0.00001905      0.00000010      0.00000256      0.00000622      0.00000256     -0.00004225" volume=79662.632263 step=10000
 P             38.62894174       6.61922881       4.86156076       0.00113347      -0.00035510      -0.00103731       0.09431431       0.49952194      -0.08280106      -5.34785414       0.91555933 F F F
 P             39.25017434       8.52541243       5.84719423       0.00229498      -0.00530021       0.00331426      -0.61533551       0.22145666      -0.23498333      -5.25198979       0.91526621 F F F
 P             39.44156439       6.66047381       6.87046614       0.00326404       0.00693995      -0.00262218       0.09203411      -0.32880134       0.60735659      -5.16368899       0.91534504 F F F
 P             40.74793905       7.12413247       5.20850852       0.00213475      -0.00152678      -0.00059611       0.42897351      -0.39218207      -0.28957561      -5.21067698       0.91533278 F F F
 P             19.71530178      17.20650766       4.21889002      -0.00017151       0.00363106       0.00088313      -0.02375980       0.22651932      -0.47812114      -5.27511450       0.91816388 F F F
 P             17.88141111      17.85018248       3.17275259      -0.00226653      -0.00252489      -0.00267674       0.12559078      -0.12577211      -0.14158962      -5.20495813       0.91799461 F F F
 P             19.42991821      19.30790119       3.66374224      -0.00266016      -0.00398579       0.00417458       0.16014808      -0.10435500      -0.07197072      -5.20444965       0.91799820 F F F
 P             19.80375669      17.80484985       2.06760191      -0.00209085      -0.00572450       0.00087222      -0.26188522       0.00354115       0.69159033      -5.31044839       0.91829546 F F F
 P              5.49082762      35.33293703      31.22446462       0.00403751       0.00202628       0.00075768      -0.85356489      -0.81948068       1.30275403      -5.00504922       0.91538617 F F F
 P              6.17516407      37.14220121      30.36620826      -0.00455838      -0.00700400      -0.00427253       0.99414287      -0.30334960      -0.44516072      -5.38779853       0.91542501 F F F
 P              7.64337689      35.61430844      31.17168707      -0.00031543      -0.00288294      -0.00563941      -0.10048554       0.73753010       0.42768207      -5.31104817       0.91529978 F F F
 P              6.54854793      35.14587525      29.39390772      -0.00310800      -0.00837869      -0.00179213      -0.04030482       0.38505116      -1.28528040      -5.17446622       0.91507538 F F F
 P             22.18669186      36.28019052      20.28919453      -0.00427052       0.00563141      -0.00387120      -0.07893113      -0.34676125      -0.54930783      -5.26878772       0.91788549 F F F
 P             23.95853654      35.06973301      19.80043530      -0.00364655       0.00536068       0.00060887       0.20788128       0.41703930       0.05465204      -5.22106723       0.91779579 F F F
 P             22.51465336      35.43090911      18.22455316      -0.00186985      -0.00555143       0.00018389      -0.38112447       0.29424049       0.41286613      -5.24541305       0.91778977 F F F
 P             23.70158616      37.11266160      18.98770807      -0.00690613      -0.00593278       0.00365618       0.25214555      -0.36452000       0.08178883      -5.23776272       0.91785876 F F F
 P              0.04489960      27.72704876      35.35511276       0.00197651       0.00392359       0.00401080       0.67843466      -0.10441114       0.32696028      -5.30916959       0.91844198 F F F
 P              2.22334106      27.86964872      35.91973921       0.00686808       0.00061966       0.00357621      -0.45504279       0.89628142       0.93850334      -5.18907598       0.91761247 F F F
 P              0.81925403      26.48267288      37.03248418      -0.00165162      -0.00191351      -0.00188365       0.45067875       0.48624583      -0.86969806      -5.35455803       0.91863861 F F F
 P              1.52233890      26.13311466      34.95835931       0.00650076       0.00116030       0.00632464      -0.67390005      -1.27781363      -0.39594575      -5.05075842       0.91771030 F F F
 P             26.36476590      11.53145869      38.01533369       0.00112411      -0.00205017      -0.00470678      -1.58464075       0.00960333      -0.39157508      -5.20706501       0.91258762 F F F
 P             27.58532571      13.16202743      38.78913395       0.00175761       0.00740991      -0.00370594      -0.16730432       0.97288251       0.20123177      -5.28494904       0.91268151 F F F
 P             28.38661995      11.19875845      38.51448733       0.00156122       0.00286683      -0.00022386       1.78680126      -1.23304338       0.54995461      -5.06692159       0.91270517 F F F
 P             27.92412789      12.37790814      36.76589433      -0.00663884      -0.00069851      -0.00318441      -0.03493107       0.25062239      -0.35950899      -5.36244095       0.91285130 F F F
 P              5.42386272      33.73228191      16.83493608       0.00210354      -0.00352923      -0.00424154       0.66754873       0.01915304      -0.14125718      -5.19928127       0.92029992 F F F
 P              6.46528799      34.54639622      15.05806454       0.00328081       0.00314677      -0.00070363       0.35844146      -0.69272898       0.74211361      -5.25473355       0.92046493 F F F
 P              7.62598682      34.19080522      16.95914585       0.00346322       0.00733535       0.00130732      -0.89194860      -0.24289423      -0.66208044      -5.26707247       0.92054629 F F F
 P              6.87404644      32.44220461      15.77455611       0.00382919       0.00085453       0.00185880      -0.13466461       0.91754240       0.06175948      -5.23688903       0.92041771 F F F
 P              2.90858001      40.96332989      19.84001473      -0.00247631       0.00059157       0.00299001       0.28604692       0.20284410       0.09051586      -5.29756036       0.91502514 F F F
 P              1.11821170      42.01002828      20.53450298       0.00156115       0.00406897       0.00386336      -0.70393092      -0.62416216       1.72244127      -5.15171260       0.91454330 F F F
 P              1.81107039      42.42304559      18.60367963      -0.00335886       0.00541399       0.00229250       0.74658418       0.26173306      -1.83903026      -5.13537151       0.91456978 F F F
 P              0.98668967      40.40933669      18.99077899      -0.00090140      -0.00362231       0.00048296      -0.32801475       0.15848364       0.02570537      -5.32985845       0.91507356 F F F
