     108
 Properties=species:S:1:pos:R:3:velocities:R:3:forces:R:3:local_energy:R:1:hirshfeld_v:R:1:fix_atoms:S:3 Lattice="64.5018593835       0.0000000000    0.0000000000    0.0000000000   64.5018593835    0.0000000000    0.0000000000    0.0000000000   64.5018593835" temperature=792.41402077 pressure=-5.65388864 time_step=2.0000 time=20000.0000 energy=-564.829215 virial="-10.71828813          2.60694910      6.21666469      2.60694910     -6.70481848     -6.26122687      6.21666469     -6.26122687     -7.33738048" stress="0.00003994           -0.00000971     -0.00002317     -0.00000971      0.00002498      0.00002333     -0.00002317      0.00002333      0.00002734" volume=268359.332170 step=10000
 P             33.48863250      48.38278170      60.61881456      -0.01047340      -0.00601553      -0.00486854      -0.30705471      -0.60422414       0.48642302      -5.37215270       0.91533677 F F F
 P             31.50286318      47.99276895      59.79407130       0.00469376      -0.00448769      -0.00069605       0.02443570       0.80472833      -0.66507133      -5.31619713       0.91510861 F F F
 P             33.35795868      47.55149634      58.64129195      -0.00692519       0.00046590      -0.00693346       0.00100125       1.36421588      -2.10276118      -5.06576719       0.91465013 F F F
 P             32.72170123      46.32832829      60.19262664      -0.00520020       0.00275553      -0.00334781       0.28154933      -1.56436599       2.28171329      -5.02491139       0.91455586 F F F
 P             43.17424905      55.71031242      17.44457571      -0.00116413       0.00169772      -0.00039986      -0.72629297       0.20698213       0.06736573      -5.32798185       0.91787539 F F F
 P             41.01390875      56.23835008      17.05536682      -0.00439129      -0.00915605      -0.00375893       0.77140995       0.16798867      -0.81843026      -5.28716186       0.91734461 F F F
 P             41.91178310      56.80739157      18.90169880      -0.01211457      -0.00431300      -0.00121300       0.49600122       0.00249454       1.07314341      -5.03421294       0.91733475 F F F
 P             42.65227823      57.82889495      17.15175699      -0.00282553       0.00177230       0.01173007      -0.53885804      -0.37810546      -0.32094723      -5.27581390       0.91758183 F F F
 P             38.37852083       4.39455913      32.81217112       0.00418797      -0.00759983      -0.00911202       0.83996594       0.44489380       0.05429488      -5.26087012       0.92010904 F F F
 P             39.91227749       5.29839943      34.17229969      -0.00491276      -0.00261108      -0.00042411      -0.33357663      -0.06379556      -0.70710816      -5.23490497       0.92001271 F F F
 P             40.54094674       4.38851550      32.25110769       0.00494211       0.00266482       0.00088861      -0.61872185       0.37009462       0.24053236      -5.23288154       0.92000344 F F F
 P             39.39166548       6.30182895      32.25203491      -0.00222678      -0.00207023       0.00272141       0.11255759      -0.75664393       0.41024562      -5.24862378       0.92006831 F F F
 P             15.56688343      35.99602551      62.43147079      -0.01265120      -0.00955698       0.00791533       0.09855945       0.15861791      -0.12897917      -5.26503473       0.91731865 F F F
 P             14.36422785      36.62957774      60.70809592      -0.00569103      -0.00762110       0.00219572      -0.28783119       0.53008010       0.24540802      -5.19961111       0.91701967 F F F
 P             16.04724801      37.94638342      61.40854416      -0.00205387      -0.00100073      -0.00640853      -0.42155558      -0.61970028      -0.15800389      -5.34817430       0.91756794 F F F
 P             16.41323913      36.01579057      60.35764417       0.00382671      -0.00840512      -0.00646879       0.61083235      -0.06899539       0.04157562      -5.16608076       0.91705095 F F F
 P              4.49564109      49.99586781      32.09649640       0.00315089       0.00510035      -0.00001189       1.24746924      -0.36660265       0.39680405      -4.98976409       0.91672212 F F F
 P              2.85802217      50.73856472      30.95975609       0.00218282       0.00012377       0.00245047      -0.87931080       0.01099613       0.99510817      -5.35260889       0.91664003 F F F
 P              2.53079894      49.60253648      32.91212806      -0.00040112       0.00015019      -0.00631217      -0.36139195       0.13333428      -0.89978160      -5.29016068       0.91656235 F F F
 P              3.34236061      51.62805628      32.97171548       0.00046202       0.00705486       0.00067536      -0.00666144       0.22250604      -0.49242284      -5.25489745       0.91677917 F F F
 P             51.14366175      57.64718038      21.95620717       0.00412399       0.00365405      -0.00578206      -0.85183488       0.51870561      -0.55934655      -5.28553222       0.92025244 F F F
 P             49.98432341      57.53209412      20.03022677      -0.00429731       0.00147228      -0.00445653       0.03937593       0.66630007       1.03583331      -5.29585758       0.92029520 F F F
 P             48.91727982      57.79648320      21.97592199       0.00372242       0.00473455      -0.00006461       0.29410709      -0.40001886      -0.17418554      -5.14003883       0.91972560 F F F
 P             50.04026514      59.48972009      21.20173104      -0.00340951       0.01241873      -0.00357044       0.51763302      -0.78344643      -0.30270403      -5.22252907       0.91980768 F F F
 P             42.05907363      60.21674377      41.57420521      -0.00677826       0.00043766      -0.00037867      -0.27872980       0.51083392      -0.23955640      -5.21742458       0.91669920 F F F
 P             41.73051729      61.56353638      43.33275554      -0.00806495       0.00670129      -0.00394177       0.07379371      -0.45574314      -0.35800927      -5.33272878       0.91711234 F F F
 P             42.64411318      59.54098628      43.52411599      -0.00025700       0.00285412      -0.00314750       0.14870104       0.00367001       0.58046516      -5.18819412       0.91671814 F F F
 P             43.77177756      61.17434727      42.57544943      -0.00138226       0.00451385      -0.00258957       0.05629596      -0.05874312       0.01692810      -5.24592491       0.91691774 F F F
 P             55.81842140      21.06324872      62.70309090      -0.00040995      -0.00152000      -0.00009916      -0.34499146      -0.71085575       0.07788250      -5.26660257       0.91633916 F F F
 P             56.04096232      21.38247953       0.37730746      -0.00144222       0.00136759       0.00676966       0.44051308       0.22751603      -0.18337602      -5.30801502       0.91661101 F F F
 P             56.84316403      19.53184956      64.00770726      -0.00524662      -0.00599762       0.00221132      -0.70784705      -0.43147805      -0.35749240      -5.23064573       0.91623207 F F F
 P             57.79781421      21.38951578      63.48409791       0.00127722       0.00098512       0.00537998       0.61234367       0.91480896       0.46295879      -5.12452516       0.91613396 F F F
 P              1.96743866      25.03649208      28.63028006      -0.00192636       0.00475499       0.00884697      -1.42419768      -0.12624274       0.61843320      -5.36808592       0.91869575 F F F
 P             64.29747136      24.78719999      29.39876643       0.00012188       0.00163526       0.00377863       0.58698920       0.41521369      -0.99083341      -5.22158608       0.91771219 F F F
 P              1.19590300      23.14055463      29.45003741      -0.00230795       0.00387353      -0.00070423       0.26526091      -0.11288027       0.19389812      -5.15799588       0.91829434 F F F
 P              1.43159841      24.89663708      30.76900802      -0.00471632       0.00299388       0.00092159       0.57195173      -0.17608738       0.17849250      -5.13893171       0.91817609 F F F
 P             10.52576554      17.00526667      54.85441767       0.00699614       0.00491387      -0.00232182       0.12793629       0.49827142      -0.14042690      -5.22303212       0.91943402 F F F
 P             12.17318494      18.15513588      53.97145954      -0.01018023      -0.00041038      -0.00750985      -0.96926457      -0.07758422      -0.27987182      -5.27749251       0.91952495 F F F
 P             10.13448721      18.16490380      53.01357717      -0.00130400      -0.00026076      -0.00189106       0.81661419      -0.01804998       0.50880434      -5.27008748       0.91948719 F F F
 P             10.51042902      19.21758353      54.91562928       0.00493908      -0.00166853      -0.00535694       0.02080653      -0.40375257      -0.08912857      -5.20022765       0.91937308 F F F
 P             54.67917490      64.35783490      22.90189828       0.00130251       0.00296119       0.00208314       0.46120100      -0.27847239       1.03496741      -5.36137394       0.91755805 F F F
 P             56.28514759      63.02325538      23.81302138       0.00577466      -0.01012700      -0.00468350      -0.01962959      -0.37160750      -1.31951293      -5.25915917       0.91691535 F F F
 P             56.76516576       0.43694710      22.72037621       0.00510481      -0.00296397       0.00252465       0.60434086      -0.54029450      -0.31035010      -5.16967684       0.91709877 F F F
 P             55.92072232       0.42447459      24.69994856      -0.00301663      -0.00505155       0.00333865      -1.04779801       1.18835290       0.59420281      -5.06530419       0.91674382 F F F
 P             49.44744012      39.01277093       3.26727879      -0.00494013      -0.00999575       0.00343730      -0.09709269       0.08958407      -0.99739577      -5.22483926       0.92016529 F F F
 P             47.46860131      38.57897706       2.56017266       0.00904071       0.00435144       0.00456534       0.03597831      -0.09390712      -0.30522776      -5.09784562       0.92000822 F F F
 P             48.47189545      40.34966007       1.75367989       0.00575797      -0.00282936       0.00519254       0.48489420      -1.09246792       0.12202867      -5.27007939       0.92040454 F F F
 P             49.15182067      38.26175497       1.15315754      -0.00300143      -0.00271842       0.00640930      -0.42379468       1.09681321       1.18060857      -5.32761400       0.92077736 F F F
 P              2.18333790      15.42519869      51.77792853       0.00244283       0.00195715      -0.00018676      -0.20680352      -0.10104345      -0.46802770      -5.07746066       0.91767940 F F F
 P              2.29361137      17.15949811      53.06997065       0.00226090      -0.00593543      -0.00117312       0.14854025      -0.27526170       0.16585956      -5.24789745       0.91787365 F F F
 P              2.41675357      15.10328217      53.90799442      -0.00310860      -0.00459184      -0.00332316       0.72495801       0.61145507      -0.33550809      -5.31828395       0.91790523 F F F
 P              4.10684424      15.96907056      52.64633288       0.00113317      -0.00299419       0.00248247      -0.66285939      -0.23407239       0.63837717      -5.31751287       0.91793445 F F F
 P             39.58817446      26.04298465      53.44781939       0.00008834      -0.00717333      -0.00017213      -0.18144078       0.20582089       1.46811080      -5.11006800       0.91563330 F F F
 P             41.60809701      25.76830807      52.67977802      -0.00462974       0.00055209       0.00096539      -0.38249075      -0.14693120      -0.25997199      -5.35930493       0.91619328 F F F
 P             40.23311268      24.04905683      52.83862034       0.00356908       0.00132050       0.00377831       0.07371054       0.16175588       0.07217018      -5.31647185       0.91608313 F F F
 P             39.80471394      25.64949435      51.39113190      -0.00001176       0.00573216      -0.00023770       0.49023471      -0.22064607      -1.28030172      -5.16137245       0.91557038 F F F
 P             39.61296329      44.98033344      33.88369817      -0.00380135       0.00130964      -0.00495822       0.15828444       0.41469194      -0.58178679      -5.23347199       0.91427754 F F F
 P             39.38525915      44.34449506      35.93705057      -0.00023250       0.00341947       0.00289106       0.37822079      -0.39728073       0.79049121      -5.19565223       0.91422803 F F F
 P             37.65046698      45.03163388      34.87307965      -0.00367432      -0.00197814       0.00684802      -0.48374889       0.31573600      -0.27305045      -5.25519503       0.91430263 F F F
 P             38.54981808      43.12417004      34.31512380      -0.00431297      -0.00275144       0.00659084      -0.05275510      -0.33309085       0.06432698      -5.29730706       0.91439446 F F F
 P              7.90283641      56.85327889      18.96911523       0.00067626       0.00404308      -0.00204257      -0.58867061      -0.13421417      -0.82647819      -5.24552503       0.92659127 F F F
 P              8.55993537      58.12086620      17.26783929       0.00321053      -0.00001527      -0.00322079       0.64085108      -0.49155142       0.49988420      -5.23355203       0.91939339 F F F
 P              9.73748004      56.32266642      17.97281695      -0.00274250       0.00506125      -0.00517153      -0.00112597       0.64432136      -0.67803926      -5.19560842       0.91921651 F F F
 P              7.87905511      56.11555019      16.79356109      -0.00123612       0.00352918      -0.00362277      -0.06308023      -0.01838335       1.03852713      -5.24131691       0.91934266 F F F
 P              5.52802726       6.44606437      15.07557875       0.00684692      -0.00722393       0.00262154       1.30341260       0.75846970      -0.66053934      -5.30588206       0.91971718 F F F
 P              6.78559354       7.81320867      16.29065923      -0.00110458       0.00159707       0.00742950       0.08155772      -0.06057804      -0.35225779      -5.16741160       0.91974411 F F F
 P              7.29262807       7.65226614      14.10439350       0.00038634      -0.00375382       0.00337630      -1.21736374      -0.91200635       1.00301912      -5.33123049       0.91994870 F F F
 P              5.44065487       8.63079111      14.77409066       0.00067270      -0.00201195       0.00438030      -0.16756324       0.21403695       0.00980392      -5.05608289       0.91964156 F F F
 P              3.28477785       1.85366757      58.28325898       0.00085664      -0.00258691       0.00455010       0.98612138       0.53674322      -0.03137272      -5.18614840       0.92125583 F F F
 P              5.49854385       2.35703268      57.91190625      -0.00091405      -0.00080637      -0.00702713      -1.72837759      -0.11194814       1.47846042      -5.33086472       0.92233330 F F F
 P              4.33255770       3.16121839      59.76629638      -0.00121113       0.00790488      -0.00344834       0.44344554      -0.73190142      -1.23131433      -5.25260335       0.92155954 F F F
 P              4.80907047       0.99845476      59.58022294       0.00517380       0.00369500       0.00152560       0.29881461       0.30717847      -0.21580375      -5.08091631       0.92118345 F F F
 P              7.61949867      57.86054757      22.66503144       0.00212756      -0.00206960      -0.00431955      -0.46833726       0.21672380      -0.49787970      -5.28147295       0.92243020 F F F
 P              5.50536531      57.92418906      23.41456190       0.00445451       0.00857729      -0.00386029      -0.48590999       0.09029037      -1.25871940      -5.21157729       0.91595117 F F F
 P              6.66766810      56.03257858      23.42814621       0.00142294      -0.00305320       0.00049792       0.06482146       0.36938235       0.47610313      -5.34920055       0.91691269 F F F
 P              7.12746406      57.79188231      24.75552138       0.00383836       0.00714931      -0.00450615       0.90153222      -0.67633370       1.24675888      -5.08874050       0.91589531 F F F
 P             41.35886604      61.76682184      29.37162336       0.00178753       0.00205908       0.00170283       0.40760405      -0.23002657       0.03213433      -5.14097193       0.91709906 F F F
 P             39.32161224      61.05602012      29.75645020       0.00194216       0.00100175      -0.00330309       0.24146901       0.76734426       0.26713290      -5.35425730       0.91750625 F F F
 P             40.28210770      62.61561721      31.07821388       0.00337413      -0.00276085       0.00270979      -0.25884445      -0.47950045      -0.24917998      -5.29564145       0.91729228 F F F
 P             39.72080808      63.11562811      29.02181004       0.00522411      -0.00134887       0.00152543      -0.40998529      -0.06225055      -0.06193910      -5.20097700       0.91710425 F F F
 P             21.40391993       4.64878877      18.67101608       0.00290820       0.00533843      -0.00404074       0.03790571       1.18889528       0.04333820      -5.32541243       0.91946637 F F F
 P             22.38379566       6.62761761      19.10137595       0.00187005      -0.00030612      -0.00670117      -0.60754628      -0.62029862       0.25166723      -5.24972149       0.91899759 F F F
 P             21.12893078       6.40437068      17.34859258      -0.01021914      -0.00116211       0.00158001      -0.17102946      -0.30902487      -0.19035148      -5.11445700       0.91884597 F F F
 P             20.16572790       6.38922371      19.32182038       0.00554482      -0.00349300       0.01004850       0.74067070      -0.25963745      -0.10461527      -5.26518614       0.91919313 F F F
 P             52.65629492      55.88690745      50.30966398       0.00691263       0.00026274       0.00296082       0.26537009      -0.33947864      -0.99506173      -5.35497158       0.91893626 F F F
 P             51.83211534      55.98876912      48.21697642       0.00218275      -0.00062067       0.00225653       1.18931078       0.04682480       0.49694024      -5.36417949       0.91888427 F F F
 P             54.08266576      56.16045692      48.59239955       0.00631479      -0.00543813      -0.00694293      -0.09422476       2.31669539      -0.12258304      -5.09849097       0.91727652 F F F
 P             53.14698081      54.32336982      48.76719082      -0.00707222      -0.00134331      -0.00777121      -1.36059486      -2.02397538       0.62063101      -4.95554981       0.91762984 F F F
 P             34.04412738      60.23036233      27.39122723       0.00703567       0.00017181       0.00069765      -0.40537516       0.12024167      -0.51387143      -5.35809468       0.92107027 F F F
 P             33.99809978      58.68091239      25.74375060      -0.00139615       0.00369180      -0.00810900      -0.54678402       0.44710570       0.04537760      -5.36302949       0.91796511 F F F
 P             35.85771544      59.43199123      26.55719692      -0.00105846       0.00347622       0.00261944       0.98860567       0.34463012      -0.20231092      -5.15323143       0.91438849 F F F
 P             34.61249915      58.18774633      27.77244989       0.00291321      -0.00288601      -0.00409696      -0.03597482      -0.88794304       0.70478539      -5.13406944       0.91438862 F F F
 P             41.71519872      48.32936402      14.90820612       0.00100203      -0.00169715       0.00990478       0.83994024      -0.73173664      -0.63383866      -5.27979080       0.92068313 F F F
 P             43.19909985      47.73805844      13.27050624       0.00303905      -0.00126187       0.01034336      -0.74906440      -0.35599621       1.60175622      -5.33642577       0.92108114 F F F
 P             43.56486798      47.22361841      15.44592171      -0.00115096       0.00101124       0.01037318       0.02297285       0.56010699      -0.50579071      -5.14719451       0.92010036 F F F
 P             42.00191818      46.19439964      14.36780257       0.00032075       0.00706060       0.00131877      -0.11382393       0.52890217      -0.46170818      -5.14343868       0.92012077 F F F
 P             30.54013026      55.34395543       3.61231141      -0.00339121       0.00357751      -0.00461095      -0.18843905      -0.15086808      -0.08897354      -5.36123870       0.91416697 F F F
 P             30.80804905      57.30135760       2.68597704      -0.00338352       0.00477884       0.00648308       0.14845094       0.48104904       0.23996737      -5.29571279       0.91401590 F F F
 P             32.39500544      55.77589084       2.56269901       0.00029930      -0.00217229      -0.00092672       1.67568946       0.34157501       0.93157431      -5.13933235       0.91373137 F F F
 P             30.66728009      55.55036953       1.42142456       0.00924284       0.00236521      -0.00350442      -1.63561462      -0.67211453      -1.08283581      -5.12165866       0.91369340 F F F
 P             18.18759882      62.11303743      43.78900549       0.00323127       0.00310709       0.00305502       0.06216942      -0.34821724       1.20607320      -5.23815477       0.91789874 F F F
 P             19.84502693      63.37881236      44.52112455      -0.00028482      -0.00044642       0.00046715      -0.00157164      -0.34776014      -0.90039316      -5.29219853       0.91843790 F F F
 P             20.01973018      61.22699583      44.82913093      -0.00128726      -0.00138209      -0.00395339      -1.04137427      -0.07030250       0.00231472      -5.22845372       0.91801860 F F F
 P             20.07402120      61.93241893      42.77817857       0.00925679       0.00625704      -0.00643242       0.98077915       0.76628579      -0.30799401      -5.09351066       0.91776497 F F F
 P             30.88588857      61.17844555      25.37319452      -0.00378867      -0.01135146      -0.00273356      -0.46803789       1.07769975       0.32033516      -5.39924589       0.92719824 F F F
 P             28.71806440      61.68434318      25.57433277       0.00435991       0.00558659       0.00268607       0.09854525      -0.42485554      -0.20416514      -5.26629675       0.91687845 F F F
 P             29.79992165      60.59841522      27.13948677      -0.00360075       0.00106298      -0.00058968      -0.53436041      -1.16515354       0.49900409      -5.04411096       0.92009805 F F F
 P             30.07251593      62.69234119      26.92174226       0.00779480      -0.00206903       0.00473319       0.92368985       0.49803511      -0.63598013      -5.22691591       0.91661779 F F F
