     108
 Properties=species:S:1:pos:R:3:velocities:R:3:forces:R:3:local_energy:R:1:fix_atoms:S:3 Lattice="47.5561162173       0.0000000000    0.0000000000    0.0000000000   47.5561162173    0.0000000000    0.0000000000    0.0000000000   47.5561162173" temperature=422.56431897 pressure=2.13970494 time_step=2.0000 time=500.0000 energy=-566.237498 virial="-2.81835575          -1.64707026      0.53038291     -1.64707026     -5.50349814      4.41948970      0.53038291      4.41948970     -2.93605672" stress="0.00002620            0.00001531     -0.00000493      0.00001531      0.00005117     -0.00004109     -0.00000493     -0.00004109      0.00002730" volume=107552.160559 step=250
 P             16.01420825      15.41729128      20.23169643       0.00348184       0.00309065       0.00346896      -0.00239941      -0.31649415       0.34821471      -5.20185066 F F F
 P             16.62141546      17.49530361      20.35066107      -0.00150500       0.00185149       0.00161465       0.05203671       0.20789548       0.04490567      -5.22618477 F F F
 P             14.86693335      16.92872229      19.16465116      -0.00410439       0.00624113       0.00006291      -0.25310951       0.28299275      -0.00407776      -5.22393783 F F F
 P             14.77833834      16.85907397      21.38214162      -0.00129910       0.00037857       0.00171433       0.20146795      -0.17370468      -0.38716512      -5.34333104 F F F
 P              5.04049156       9.90227411      27.09104562      -0.00509897      -0.00439498      -0.00061264      -0.16798008      -0.37137757      -0.07779481      -5.31552379 F F F
 P              5.51691583       8.33309320      28.54596827      -0.00062508      -0.00164731       0.00262141       0.69088509      -0.27762234      -0.00358823      -5.16771319 F F F
 P              3.46142813       8.77561096      28.13272617      -0.00271068      -0.00547753      -0.00070976      -0.69722535       0.24144246      -0.18662027      -5.16007996 F F F
 P              4.65188861       7.76524195      26.57987587       0.00225508      -0.00399170      -0.00240152       0.17432033       0.40755745       0.26800331      -5.33676492 F F F
 P             11.45031502      18.10281213      24.77215052      -0.00029362       0.00584220       0.00092654      -0.04550756       0.31509097       0.15562382      -5.29608941 F F F
 P              9.53508557      19.16401542      24.38926356      -0.00518120      -0.00143622       0.00480546       0.29595787       0.41466020       0.00250039      -5.26673768 F F F
 P             10.26803866      17.63338953      23.01283957       0.00060079       0.00049590       0.00279900      -0.11430496      -0.15503730      -0.33101692      -5.23140601 F F F
 P              9.52821149      17.10394374      24.99019851       0.00364298       0.00219504       0.00017791      -0.13414110      -0.57540326       0.17101521      -5.19593249 F F F
 P             40.41705506      30.25694688      32.94794528      -0.00115977       0.00212942      -0.00292737      -0.25743009      -0.52790237      -0.87396202      -5.14810685 F F F
 P             39.05667639      28.66249092      33.80415915       0.00009684      -0.00040520      -0.00309968       0.95672946       0.83807572       0.18849183      -5.35995406 F F F
 P             40.16117158      30.20310150      35.06607359      -0.00028503       0.00023229      -0.00021771      -0.77055427      -0.53484454       0.49962488      -5.21980626 F F F
 P             38.45665370      30.75359346      33.75931099       0.00030244      -0.00588213      -0.00404806       0.07125491       0.22467119       0.18584531      -5.18336723 F F F
 P             41.69504667      33.54675413      21.48695064       0.00065103      -0.00097788      -0.00752105       0.03443846       0.62166032      -0.18519886      -5.26021701 F F F
 P             41.50963781      34.85161364      19.70213467       0.00282631       0.00061594      -0.00514470      -0.20997259      -0.08839226       0.42337661      -5.22501023 F F F
 P             40.36065765      35.31954624      21.55889961       0.00350902       0.00191627      -0.00357953       0.58601737      -0.16448525      -0.32052075      -5.26610505 F F F
 P             42.55628490      35.59171509      21.47256564      -0.00198167      -0.00720004      -0.00589692      -0.41048324      -0.36878281       0.08234300      -5.23693936 F F F
 P              4.02635504       3.40839722      30.85982209      -0.00133603       0.00799149      -0.01035201      -0.02179993       0.32762342      -0.04503725      -5.19262172 F F F
 P              2.52976578       1.81592772      30.82275954      -0.00271151       0.00566584      -0.00192413      -0.18390724       0.27013443      -0.52438084      -5.26898706 F F F
 P              3.14683457       2.84001256      28.90972136      -0.00349566      -0.00292568      -0.00399570      -0.11506643      -0.31841295       0.81633758      -5.36736859 F F F
 P              4.50206341       1.47546848      29.99294712      -0.00394225      -0.00124732       0.00144364       0.32077360      -0.27934490      -0.24691949      -5.14515835 F F F
 P             32.57168509      16.67796871      22.15239775       0.00176020      -0.00108405       0.00366510      -0.41834485       0.66897692       0.40177740      -5.33357299 F F F
 P             31.59359974      18.53480494      23.03942838      -0.00381220       0.00243988       0.00245862       0.33140220      -0.75496499       0.53550800      -5.26289879 F F F
 P             31.29390673      18.03091204      20.98375445      -0.00197145      -0.00169562       0.00096247      -0.20250892      -0.20177191      -0.98056501      -5.06118910 F F F
 P             30.38759661      16.74349908      22.50282035       0.00281951      -0.00014477       0.00117092       0.28945157       0.28775998       0.04327961      -5.28627018 F F F
 P              4.15296788      43.58409563       6.34131735      -0.00012750       0.00303099       0.00082612       0.41041628      -0.03994646       0.06760010      -5.29470043 F F F
 P              5.70491780      44.92598861       7.14522819       0.00084684       0.00328175      -0.00195278      -0.11777229       0.17604456       0.15352262      -5.17977539 F F F
 P              5.70878749      42.79794922       7.71840936      -0.00516684       0.00095506       0.00817716      -0.07644282       0.10337630      -0.32789548      -5.27816895 F F F
 P              6.25552302      43.44672564       5.65000112      -0.00165140       0.00074000      -0.00068902      -0.21620117      -0.23947441       0.10677276      -5.24713450 F F F
 P             11.45716989      20.86230396      45.71952282      -0.00076933       0.00363602       0.00055262       0.13567706      -0.33749160       0.00643619      -5.25838101 F F F
 P             10.26935052      22.62063270      46.14238033       0.00255861       0.00161173       0.00760139      -0.32807023       0.26079018       0.05405708      -5.23441983 F F F
 P             11.91166616      22.09397711      47.47280602       0.00529909      -0.00068416      -0.00296743      -0.01924692      -0.14274560       0.23124899      -5.27719290 F F F
 P             12.33263785      22.84203826      45.47989253      -0.00067462       0.00247937      -0.00196996       0.21164009       0.21944702      -0.29174225      -5.22970059 F F F
 P              2.80684230      39.14283112      43.79778642      -0.00328475      -0.00155767      -0.00313909       0.42470258       0.64471022       0.87605742      -5.15962808 F F F
 P              1.33956803      37.76220961      43.11540210      -0.00115753      -0.00630362      -0.00008166      -0.59553331      -0.77847925       0.40761360      -5.23159602 F F F
 P              3.23660311      37.02306021      43.94129194       0.00034597      -0.00273879       0.00148682       0.28167604      -0.44420280      -0.30346547      -5.13918983 F F F
 P              1.78885182      37.84620742      45.33174485       0.00096680       0.00178065      -0.00161683      -0.11084531       0.57797183      -0.98020554      -5.38187548 F F F
 P             20.88739289      34.83167773      40.31194132      -0.00233790      -0.00301065       0.00323954      -0.05896341       0.21196963       0.08291274      -5.26270586 F F F
 P             19.88901185      36.49472359      41.37918094       0.00039190      -0.00546996       0.00200075       0.50979350      -0.53182703       0.22789512      -5.31739109 F F F
 P             21.55009809      35.32826812      42.34727035       0.00598876       0.00239154      -0.00340129      -0.57567958       0.15956769      -0.02622233      -5.25556794 F F F
 P             21.97056258      36.69157403      40.73490573      -0.00303139      -0.00626699      -0.00230525       0.12321037       0.15727117      -0.29314103      -5.15030312 F F F
 P             46.06603749       2.44186464      19.84453111       0.00036079      -0.00182941       0.00547250       0.23592127      -0.33965411      -0.25537138      -5.28803507 F F F
 P             45.73626425       0.25724946      19.80525652       0.00051199      -0.00500963       0.00354788      -0.19256604       0.00453641      -0.18421757      -5.18893644 F F F
 P             46.92385259       1.20205305      18.19941052       0.00077394      -0.00236359       0.00779661      -0.15994701       0.12397151       0.58929209      -5.31082854 F F F
 P              0.15536172       1.02583265      20.25068260      -0.00166343      -0.00412227       0.00188061       0.11659177       0.21114619      -0.14970314      -5.20706550 F F F
 P             27.46157534      30.42675429      30.88145471       0.00161848       0.00614981      -0.00238246      -0.25118506       0.24640618       0.67380335      -5.26777001 F F F
 P             29.38223362      29.76170125      31.78447158       0.00041692      -0.00002147      -0.00288045      -0.28721809       0.16413370       0.40234530      -5.29806341 F F F
 P             27.78804663      28.28461365      31.37767192       0.00146942      -0.00027654      -0.00197555       0.06303338       0.20889511       0.01786875      -5.33775103 F F F
 P             28.87175527      29.27178080      29.75755890       0.00204534      -0.00089650      -0.00283923       0.47536978      -0.61943498      -1.09401741      -5.05991416 F F F
 P             44.85398426      35.87289546       6.81896960      -0.00288705       0.00300073      -0.00016639       0.07407018      -0.55873629      -0.25093113      -5.27953047 F F F
 P             44.23680989      37.62977463       7.87763096      -0.00067213      -0.00038973      -0.00145145      -0.44898038       0.43080196       0.98238011      -5.15910958 F F F
 P             45.99011296      37.72054429       6.63064507       0.00052301       0.00131186       0.00063420       0.59843526       0.15729380      -0.18176069      -5.25911717 F F F
 P             44.01295646      37.57474220       5.74250868       0.00126963       0.00147009       0.00088880      -0.22352506      -0.02935947      -0.54968829      -5.27959058 F F F
 P             15.19228041      30.96320176      15.61227450       0.00053820       0.00145439       0.00138810       0.65922874       0.46714219       0.31245492      -5.13707228 F F F
 P             15.66353115      29.87062731      13.83471518       0.00175525      -0.00026238       0.00376039       0.86846272      -0.20779330      -0.04332038      -5.14263776 F F F
 P             16.91383469      31.65333591      14.32956920      -0.00165255       0.00205778       0.00262575      -0.68680208      -0.97152178       0.65917215      -5.30803451 F F F
 P             17.09087241      29.77704027      15.58512167       0.00135444       0.00048303       0.00066656      -0.84088938       0.71217289      -0.92830669      -5.31640415 F F F
 P             28.13822909      10.62253702      31.65595897       0.00298262       0.00010905       0.00037125       0.18264974      -0.42595288       1.01798628      -5.38058478 F F F
 P             28.89844741      10.33052209      33.78643031       0.00460956      -0.00115831       0.00358985      -0.01748104      -0.07760820      -0.85635249      -5.31708217 F F F
 P             26.80819888       9.97529719      33.29814445       0.00094828       0.00043249      -0.00312267      -0.88632359       0.61433074       0.12398764      -5.04865234 F F F
 P             28.24281720       8.59099185      32.56394599      -0.00156411       0.00021791       0.00111232       0.72115488      -0.11076966      -0.28562143      -5.18950848 F F F
 P              9.82054349      46.43202633      36.54238640       0.00151856       0.00070372       0.00408166      -0.20250565      -0.32976712      -0.14404597      -5.28616465 F F F
 P              7.59931758      46.53884076      36.44746790       0.00185369       0.00503670       0.00686750       0.07747451      -0.51320206      -0.16141568      -5.26003654 F F F
 P              8.63528256      46.81333548      38.34363241       0.00054600       0.00507865       0.00208503       0.00298146       0.10831629       0.10336070      -5.27803735 F F F
 P              8.76936402       0.76294747      36.74061629       0.00278212       0.00490846      -0.00245136       0.12204968       0.73465288       0.20210095      -5.16082180 F F F
 P             11.92840856      34.26991773       9.61408437      -0.00453778      -0.01191357      -0.00450432      -0.27353406      -0.20993448       0.36143714      -5.18029900 F F F
 P              9.78248252      33.83805479      10.08265566      -0.00433246      -0.00024170      -0.00003866       0.76606335       1.31990092      -0.55180441      -5.33847512 F F F
 P             10.96379384      35.15929077      11.39402173       0.00665402      -0.00677529      -0.00457276       0.21842220      -0.13504398      -0.03144741      -5.14040331 F F F
 P             10.53903978      35.92965839       9.38056780       0.00733203      -0.00157138      -0.00801483      -0.71095148      -0.97492247       0.22181468      -5.24089509 F F F
 P             32.48762339      39.01543807      42.61482490       0.00134476       0.00113780      -0.00318696       0.37873870      -0.36841671      -0.19576883      -5.23651815 F F F
 P             33.93827584      37.29583985      42.54644204       0.00547234       0.00469322       0.00238631      -0.44285440       0.68860940       0.25491650      -5.31279332 F F F
 P             34.42993679      39.15853469      43.64066378      -0.00318686       0.00318381       0.00340865      -0.18246696      -0.27243177      -0.03485459      -5.24004468 F F F
 P             32.84495614      37.82215620      44.40567552      -0.00385584       0.00317832      -0.00056136       0.24658266      -0.04776092      -0.02429307      -5.19647930 F F F
 P              6.67639146      15.81163827       5.88873413       0.00000995      -0.00243551       0.00025778      -0.79030195       0.19875102       0.25173112      -5.27270206 F F F
 P              5.48903388      17.65296582       5.60572463      -0.00023690      -0.00525325      -0.00178899      -0.03162617      -0.16973839      -0.12837404      -5.14866660 F F F
 P              4.54862707      15.94499575       6.65480983      -0.00209241      -0.00747671      -0.00832046       1.23135592       0.38122745      -0.04154479      -5.33282970 F F F
 P              6.23320971      17.14708327       7.58191701      -0.00155123      -0.00123594      -0.00393695      -0.40942780      -0.41024008      -0.08181229      -5.20474132 F F F
 P             31.37314703      14.59361688      40.89814800      -0.00330156       0.00096477      -0.00000435       0.15116601       0.31253025      -0.11637106      -5.29636531 F F F
 P             32.14849148      16.12801239      39.48771607       0.00386866       0.00390634       0.00593504      -0.00355740      -0.16863960       0.28548832      -5.28170993 F F F
 P             30.25993510      16.45375279      40.53604660       0.00123080       0.00452319      -0.00141507      -0.28269665       0.01658402      -0.06265102      -5.17438229 F F F
 P             32.12614800      16.53342416      41.64597206      -0.00039637      -0.00045136      -0.00137346       0.13508804      -0.16047467      -0.10646624      -5.24906133 F F F
 P             45.34967105       3.91999701       4.90255526       0.00079248      -0.00232894      -0.00268501      -0.29107355       0.08694055      -0.13467288      -5.21734820 F F F
 P             47.25019489       4.17937424       5.92199330       0.00244170       0.00859207      -0.00243039       0.26348450       0.25675986      -0.10437567      -5.24300664 F F F
 P             46.73481085       5.48899500       4.20633197      -0.00212116       0.00276036      -0.00159429       0.11842470      -0.27078074       0.18096577      -5.29114998 F F F
 P             45.69771048       5.71913910       6.12904142      -0.00753806      -0.00162952       0.00018372      -0.09083565      -0.07291967       0.05808278      -5.24657985 F F F
 P             13.20454670       1.11449362      29.89981642       0.00508320      -0.00010363       0.00148762      -0.08491257      -0.23142068       0.21093548      -5.25788632 F F F
 P             14.75364171      47.12362436      30.19805497       0.00317602       0.00321621       0.00206892      -0.25480074       0.22370099       0.27591423      -5.30095056 F F F
 P             15.28707559       1.59762557      29.61378423       0.00023202       0.00649976       0.00190067       0.44789228       0.31884412      -0.21772302      -5.12210587 F F F
 P             14.55735664       1.24698903      31.64271070       0.00228717      -0.00082706       0.00186629      -0.10817897      -0.31112443      -0.26912669      -5.31036725 F F F
 P             41.82423440      18.60765858      42.13642298      -0.00388246       0.00219587       0.00278295       0.02827518      -0.07195176      -0.03641337      -5.28077036 F F F
 P             41.03656716      20.35810208      43.14704325       0.00117191      -0.00259326       0.00235557       0.18685191       0.29494040       0.57678717      -5.15150411 F F F
 P             40.89322276      20.21826519      40.99507845       0.00037448      -0.00562411       0.00209236      -0.18445437      -0.18647848      -0.25876550      -5.27218002 F F F
 P             39.65809126      18.91717052      42.28666543      -0.00122796      -0.00133482      -0.00031651      -0.03067273      -0.03651015      -0.28160829      -5.29087327 F F F
 P             31.95531229      30.97786867       9.06293358       0.00037808      -0.00010981      -0.00058286       0.19053605       0.52992490      -0.01446719      -5.21801459 F F F
 P             30.57007008      31.76178227       7.51338831      -0.00492836       0.00279554       0.00333200       0.10067049      -0.04100999       0.45194874      -5.30379554 F F F
 P             30.02220322      30.07860322       8.80972964       0.00195207      -0.00235348      -0.00212499      -0.60201283      -0.21458708      -0.04888752      -5.13938808 F F F
 P             30.13816984      32.09893916       9.67484503       0.00005357      -0.00774852       0.00698480       0.31080629      -0.27432783      -0.38859404      -5.32246959 F F F
 P             16.44512815      33.25113573      37.81672274       0.00195580       0.00136454      -0.00051115      -0.08325617      -0.16158668      -0.12116658      -5.26137030 F F F
 P             16.06517150      35.39813494      37.80636662       0.00065950       0.00233418       0.00198280      -0.09305565       0.23743602       0.13062406      -5.22272009 F F F
 P             18.08007470      34.63918068      37.38282857       0.00342484       0.00316262      -0.00387535       0.23983059       0.09920787       0.05181073      -5.24520202 F F F
 P             16.46946896      34.38209514      35.91748214      -0.00217517       0.00408155      -0.00110206      -0.06187964      -0.17203866      -0.05271270      -5.27469718 F F F
 P             36.81274638       5.99673821      37.30453923       0.00189166       0.00001064       0.00016586      -0.12467321       0.28475443       0.61455476      -5.33732150 F F F
 P             37.60521583       8.02809920      37.51272856       0.00620271      -0.00173689       0.00553079      -0.05400178       0.27917265      -0.22307944      -5.19748768 F F F
 P             35.46922100       7.62575382      37.97205238      -0.00274813      -0.00553307      -0.00473528      -0.03908021       0.03116294      -0.42495987      -5.23661971 F F F
 P             37.02557370       6.97057480      39.31578222      -0.00794517      -0.00185877       0.00223223       0.21775520      -0.59509001       0.03348455      -5.20571800 F F F
