     108
 Properties=species:S:1:pos:R:3:velocities:R:3:forces:R:3:local_energy:R:1:hirshfeld_v:R:1:fix_atoms:S:3 Lattice="47.5706613427       0.0000000000    0.0000000000    0.0000000000   47.5706613427    0.0000000000    0.0000000000    0.0000000000   47.5706613427" temperature=110.64571669 pressure=41.37601522 time_step=2.0000 time=20000.0000 energy=-568.997071 virial="0.43365831           -0.72055722     -0.53819715     -0.72055722      1.92466203      0.26717723     -0.53819715      0.26717723      2.92125085" stress="-0.00000403           0.00000669      0.00000500      0.00000669     -0.00001788     -0.00000248      0.00000500     -0.00000248     -0.00002714" volume=107650.875822 step=10000
 P              8.96929864       6.73841197      40.27444040       0.00024026       0.00166823      -0.00111543       0.14523133      -0.13483030      -0.35714263      -5.26673736       0.92067419 F F F
 P              9.44852256       6.38367462      42.36542203      -0.00011377      -0.00119520       0.00079074       0.27504764       0.36239614       0.48337854      -5.19460011       0.92581222 F F F
 P              7.40212004       6.95268734      41.76832474      -0.00100285       0.00299204      -0.00001663      -0.03085888      -0.19715061       0.20555028      -5.30258673       0.91614757 F F F
 P              8.22694800       4.94114451      41.33094348      -0.00043475       0.00104903       0.00142043      -0.35032988      -0.01941718      -0.33809940      -5.28423905       0.91587444 F F F
 P             44.77996968      24.36324844      33.03496142      -0.00057919      -0.00095792      -0.00038202       0.13058916      -0.28691959       0.03083295      -5.27960091       0.91626237 F F F
 P             43.09492885      23.51512228      34.15216294      -0.00102313       0.00052535      -0.00212201       0.04473200      -0.11234583       0.19278696      -5.24246798       0.91622374 F F F
 P             42.85534762      24.08972524      32.07508203       0.00140121       0.00167605      -0.00137049      -0.32387876       0.12257413      -0.37783828      -5.15942245       0.91613134 F F F
 P             44.04135220      22.32015149      32.56142287      -0.00053359       0.00053126      -0.00044098       0.14840490       0.27677698       0.15426636      -5.31703002       0.91638193 F F F
 P              4.07509677      36.56059351       9.54199887      -0.00028330      -0.00012382      -0.00017848       0.10410658       0.27414091      -0.08884278      -5.18542000       0.91754277 F F F
 P              4.12576241      35.48788126      11.44839883       0.00108693      -0.00176461      -0.00004262       0.25748098      -0.08796718      -0.09671319      -5.26343021       0.91689569 F F F
 P              3.04054753      34.66125907       9.74944040       0.00033741      -0.00076697       0.00118969       0.08556460      -0.25491264      -0.10646867      -5.22884515       0.91682300 F F F
 P              5.26355891      34.72747444       9.68248082      -0.00168238       0.00119068      -0.00275060      -0.46449454       0.03473571       0.31303195      -5.36167287       0.92889748 F F F
 P             23.83453456      23.94129277      44.79051991      -0.00120299      -0.00103932      -0.00283533      -0.17665189      -0.22228508      -0.38786422      -5.21442930       0.91866920 F F F
 P             25.69484269      22.88511189      44.17224160       0.00354946      -0.00123440      -0.00140490      -0.22295976       0.24422613       0.06047311      -5.30451829       0.92876063 F F F
 P             25.63545698      25.08408900      44.33787248      -0.00225764      -0.00484697      -0.00185873       0.09207611      -0.08626538       0.22299173      -5.28198460       0.91704561 F F F
 P             25.50809909      23.83033518      46.15557356       0.00028512      -0.00160961      -0.00148396       0.37020349       0.13474969       0.10659697      -5.22206447       0.91686716 F F F
 P              3.26811982       4.63304030       6.96969906      -0.00009190      -0.00092412       0.00108246      -0.01259267       0.22581224       0.10215599      -5.32044907       0.91571549 F F F
 P              4.22352851       6.36448936       5.98946508      -0.00156040      -0.00122700      -0.00149569      -0.44313665       0.49832418       0.01847030      -5.24376328       0.91548555 F F F
 P              4.72981662       5.87596995       8.08052264       0.00142281      -0.00030155      -0.00186808      -0.24068658       0.04558195      -0.04928343      -5.31701709       0.91570474 F F F
 P              5.37473686       4.61641763       6.43551598      -0.00004972      -0.00087341      -0.00161408       0.69581376      -0.76993401      -0.07151769      -5.10230573       0.91545574 F F F
 P             37.34277717       6.55340845       6.25215684      -0.00307481      -0.00429816       0.00063198      -0.41197222       0.37129264       0.05561085      -5.32324322       0.92304333 F F F
 P             36.54509262       7.06833688       4.27423020       0.00128352       0.00165640      -0.00077215      -0.10379558       0.09275545      -0.10881475      -5.22309750       0.93965220 F F F
 P             35.19335403       6.25130116       5.81040552      -0.00335197      -0.00093362      -0.00191843       0.13210378       0.08076802       0.08755406      -5.28228342       0.93590255 F F F
 P             35.96716292       8.32051964       6.01123557       0.00046473      -0.00088095       0.00003246       0.28905715      -0.59538756      -0.00757827      -5.35298692       0.92403945 F F F
 P             30.52687968       3.88002208       1.50590857       0.00129370      -0.00331925       0.00014386       0.19932103       0.12251630      -0.02701722      -5.32978686       0.91807622 F F F
 P             32.44487429       3.49976290       0.47601010       0.00070283      -0.00117537      -0.00417691      -0.02609609      -0.12007434       0.00792440      -5.28906972       0.93228454 F F F
 P             30.94211974       4.78570304      47.12728306       0.00048832      -0.00127650       0.00398189      -0.17762852      -0.01319827      -0.19690436      -5.22772279       0.91689925 F F F
 P             32.02808084       5.49159436       1.30084181      -0.00195135      -0.00229138       0.00091620      -0.10823253      -0.06682145       0.12430713      -5.29693669       0.93983442 F F F
 P             20.51028006       9.64779213      40.97232895      -0.00044821      -0.00059695      -0.00184095      -0.00489534       0.12398039      -0.52854905      -5.30647969       0.91759248 F F F
 P             21.83661154      11.37011515      40.74832848       0.00076542      -0.00067116       0.00074198       0.18676540       0.04666571      -0.17998746      -5.22893135       0.92024019 F F F
 P             21.73581308       9.88610271      39.11209528       0.00038111       0.00131844      -0.00097096      -0.02653855      -0.17177041       0.50820265      -5.27432093       0.93112915 F F F
 P             20.06205863      11.22346510      39.47332277       0.00159865      -0.00163206      -0.00013894      -0.16673115      -0.03613761       0.21643441      -5.23013834       0.91788102 F F F
 P             40.52693821      44.37285944       1.25041936       0.00096145       0.00096567       0.00267112      -0.04965297       0.07989622      -0.10296854      -5.23193782       0.92283890 F F F
 P             39.82831446      43.79426716       3.23601109      -0.00348376       0.00056972      -0.00410443       0.16199922      -0.11923160      -0.07994936      -5.30932126       0.92429696 F F F
 P             40.84109982      42.31887815       1.93619903      -0.00085359       0.00173622      -0.00098103      -0.02367786       0.14831521       0.14356623      -5.30667939       0.92525115 F F F
 P             41.99501627      43.99047285       2.84489441      -0.00167496      -0.00102523       0.00317960      -0.20032973      -0.20704428      -0.09811578      -5.27632357       0.92995831 F F F
 P              3.86134215      17.97292149      12.72505242      -0.00183687      -0.00031867      -0.00330671      -0.05915177       0.25770285       0.04080404      -5.24324297       0.91635059 F F F
 P              2.39005345      17.27593512      14.22139360       0.00001165      -0.00259050      -0.00024527       0.07105833       0.04097159      -0.14726015      -5.29857173       0.91650292 F F F
 P              1.98295221      17.05459759      12.06411415       0.00030446       0.00012997      -0.00104321      -0.02865182       0.06205619       0.03380713      -5.26871533       0.91642955 F F F
 P              3.54411955      15.85311641      13.01806895       0.00325665       0.00192643      -0.00001604       0.01708260      -0.36000187       0.07269078      -5.19555575       0.91629519 F F F
 P             33.55983249      45.91071146      47.40169963      -0.00212480       0.00367307      -0.00010699       0.03227334      -0.09711630      -0.21385904      -5.26250333       0.91654707 F F F
 P             34.95301877      44.99514342       1.27490758      -0.00229820       0.00009627       0.00227431      -0.14516575       0.19973255       0.13337739      -5.28892837       0.92975893 F F F
 P             35.55079193      46.79553237       0.16399086       0.00063862       0.00044046      -0.00060407       0.08343945      -0.04580722      -0.19444550      -5.27479851       0.92488879 F F F
 P             34.00801976      46.95633063       1.69001984       0.00316653       0.00280902      -0.00070779      -0.07063833       0.01455474       0.29317320      -5.28189822       0.92759863 F F F
 P             30.45784339       8.82965741       4.16905963       0.00282595      -0.00103325      -0.00066637      -0.20593081       0.40947522      -0.27561967      -5.21330854       0.91586322 F F F
 P             31.70166672       8.43481760       5.91534389       0.00252605      -0.00236381       0.00167946       0.05939439       0.00620021       0.30431068      -5.30285852       0.92166428 F F F
 P             30.59414001       6.80881578       4.92747068      -0.00090084      -0.00102840      -0.00010078       0.07553577      -0.30901202       0.12712538      -5.30693563       0.92053381 F F F
 P             32.33390645       7.73096852       3.94143835       0.00101468      -0.00204980       0.00043797       0.16623581      -0.06406989      -0.11321389      -5.31854290       0.93632271 F F F
 P              9.84960040      35.52356770       6.80182420       0.00189046      -0.00048193       0.00115725      -0.51567490      -0.03411340       0.19007363      -5.29120008       0.91844114 F F F
 P              8.75432183      35.72578427       8.72497962      -0.00039165       0.00256885       0.00027400       0.13810446      -0.10280005      -0.19043780      -5.24305182       0.92540983 F F F
 P              7.61622558      35.42602430       6.87085137       0.00221783       0.00118147       0.00033976       0.42023048       0.00259527      -0.06263830      -5.25981188       0.92612119 F F F
 P              8.82753999      33.76872537       7.68704239      -0.00034296      -0.00160478       0.00225591      -0.02425356       0.16656368       0.04264966      -5.25820018       0.92159322 F F F
 P             43.66054431      47.49566668       5.05799678       0.00016180       0.00099594      -0.00045536       0.22344442       0.16772888      -0.06624083      -5.27142422       0.91642350 F F F
 P             42.85423380      45.61908376       5.79064554       0.00288799       0.00242655       0.00197378      -0.00950546      -0.41005799      -0.03849627      -5.22254325       0.92445615 F F F
 P             42.46107514      47.45105354       6.88872825       0.00035634       0.00347667      -0.00082931      -0.06581415       0.29505938       0.26218647      -5.29900270       0.92035975 F F F
 P             41.51320863      47.12187661       4.93747343      -0.00007954      -0.00162423      -0.00144708      -0.23685511       0.04581229      -0.08363752      -5.33821771       0.92929230 F F F
 P             11.40896315       9.36063445      42.45916648      -0.00097805       0.00101035       0.00030305       0.42134000       0.26580815       0.08315541      -5.32132894       0.92750518 F F F
 P             13.41356446      10.35879079      42.21325946       0.00073862       0.00057548       0.00014199      -0.57624424      -0.02891704      -0.06573564      -5.32594017       0.91693864 F F F
 P             13.13811408       8.27642985      41.65222141       0.00141771       0.00037604       0.00272887       0.11851098      -0.52170089       0.08535885      -5.16706157       0.92034019 F F F
 P             12.17743430       9.80847059      40.45572962       0.00012739      -0.00015823       0.00005968       0.00060745       0.27400433      -0.09586379      -5.23282421       0.91857494 F F F
 P             30.05804792      38.33521983      40.53445230       0.00006252      -0.00209758       0.00187639      -0.27351663      -0.14198952       0.11019311      -5.18098177       0.91681368 F F F
 P             32.22754723      38.40430663      40.77370019       0.00282296      -0.00065470       0.00190183       0.07341100       0.03662308      -0.19203275      -5.25420791       0.91693101 F F F
 P             31.32393611      36.99202106      39.33401041      -0.00009971      -0.00010449       0.00060634      -0.02346021       0.30745095       0.04138380      -5.30080317       0.91706800 F F F
 P             31.26229097      39.16802958      38.92153473      -0.00306978      -0.00200110      -0.00186856       0.22468133      -0.20298834       0.04096312      -5.26922635       0.91695038 F F F
 P              7.61922734      26.33776182      12.99700483      -0.00138839      -0.00108822       0.00093525       0.09287029       0.05391610       0.07259155      -5.26008745       0.91671597 F F F
 P              7.86383915      26.60483047      15.17172117      -0.00254587       0.00135582      -0.00072534       0.12482749      -0.09348357      -0.05338742      -5.24621131       0.91668022 F F F
 P              6.27769915      27.66647867      14.12083276      -0.00130665       0.00026203      -0.00016931      -0.14053725      -0.04730532      -0.06360838      -5.24714824       0.91668251 F F F
 P              6.16062328      25.47275742      14.38094519       0.00060500      -0.00218146       0.00188060      -0.07683557       0.08770069       0.04445858      -5.25740972       0.91671056 F F F
 P             33.60488861      28.94575992      36.41353195      -0.00297392      -0.00086729      -0.00212109      -0.01076569      -0.36514111       0.06338491      -5.23916521       0.91570406 F F F
 P             32.38722022      29.33621565      34.63209887       0.00074448      -0.00047703       0.00244268      -0.06276140      -0.16403129       0.03634340      -5.28493215       0.91580462 F F F
 P             32.01365378      30.43409915      36.49890183       0.00247961       0.00264506       0.00086370      -0.08292961       0.09514709      -0.00071160      -5.27639922       0.91579930 F F F
 P             33.83023075      30.80675172      35.33765956       0.00185979      -0.00075106       0.00245532       0.15619135       0.43545683      -0.09811823      -5.20345352       0.91566972 F F F
 P             32.44586584      18.04178925       2.65551856      -0.00133616       0.00259263       0.00045268      -0.01108239      -0.16039443      -0.24381671      -5.19894255       0.91678777 F F F
 P             31.88802487      18.93172536       4.55209398       0.00181445       0.00079465       0.00044373      -0.01318355      -0.05876421       0.22990109      -5.23386174       0.91683745 F F F
 P             31.50806028      16.78584999       4.20621217      -0.00107409       0.00243915      -0.00020804       0.20132559       0.21854339      -0.03999511      -5.30269176       0.91703074 F F F
 P             33.58192732      17.51976971       4.45586925       0.00083507      -0.00172632      -0.00016711      -0.17737111      -0.00112354       0.05342302      -5.27139726       0.91694013 F F F
 P             25.01217077      20.21238825      41.35722759      -0.00204147       0.00187734       0.00133880       0.20044080      -0.05315183      -0.02143358      -5.30122158       0.92094732 F F F
 P             26.11865739      18.84265650      42.70155698      -0.00267395      -0.00048777      -0.00054688       0.14351201      -0.02721586      -0.30238546      -5.28073629       0.91818398 F F F
 P             24.38055214      19.90801210      43.41777276      -0.00015704       0.00061146      -0.00118629      -0.42951936       0.07774450       0.25552544      -5.18033835       0.92731162 F F F
 P             24.13017395      18.29282987      41.93799154       0.00009672       0.00146028      -0.00122492       0.02296690      -0.07075684       0.06468110      -5.29150831       0.91658903 F F F
 P             37.73560415      40.63025656       0.07657122       0.00133663       0.00119728       0.00320997       0.31449936      -0.13927231       0.12970308      -5.24895192       0.92220971 F F F
 P             37.29384895      42.67749797      46.97866870       0.00225416       0.00272815       0.00016048       0.03598195       0.05551648      -0.17051171      -5.32228107       0.92893551 F F F
 P             35.82022568      41.04989482      46.69677267       0.00211008       0.00001875      -0.00167550      -0.15106067       0.20263344      -0.03896571      -5.28634093       0.91687424 F F F
 P             36.25056761      41.85595657       1.13673883       0.00041753       0.00443023       0.00009127      -0.03012170      -0.17655609       0.12467076      -5.25193043       0.92531423 F F F
 P             13.48609615      26.51189600      23.24698172      -0.00034186      -0.00146206      -0.00078936       0.19355245       0.37731735      -0.00969684      -5.27916215       0.91723986 F F F
 P             13.71298892      28.60817009      22.49586899       0.00173337      -0.00115107      -0.00040160      -0.06384955      -0.39281611       0.09819546      -5.34276248       0.92848265 F F F
 P             15.26509209      27.10597209      22.07351744       0.00145056       0.00085524      -0.00009860      -0.03127654      -0.05274962       0.12347004      -5.23744426       0.91720096 F F F
 P             13.30833173      26.93546355      21.11963275       0.00064178       0.00049741      -0.00036830      -0.09239139       0.10336578      -0.21181412      -5.18502340       0.91721712 F F F
 P             34.78460867       8.01678628       0.44499785       0.00200615      -0.00010054      -0.00447830      -0.22988656       0.03936498       0.32278216      -5.27410397       0.92567810 F F F
 P             35.91916758       7.72409264      46.19746032       0.00270166      -0.00008542      -0.00297954       0.26007464       0.08269685      -0.27683737      -5.23871042       0.91591202 F F F
 P             36.90440232       7.51701191       0.58941729      -0.00041201       0.00051837      -0.00105519       0.05890685      -0.01588767      -0.11762149      -5.31681768       0.92445717 F F F
 P             35.47079365       6.00853231      47.47233464       0.00103957       0.00187581      -0.00004475      -0.01200992      -0.14240864       0.12516494      -5.32071772       0.93407808 F F F
 P             39.03537145       2.32159190       6.92616544      -0.00394133      -0.00087539      -0.00186912       0.27391186       0.00639523      -0.22408124      -5.28148890       0.92622296 F F F
 P             38.19281141       0.30513058       7.20514912      -0.00308707      -0.00107393      -0.00014600       0.25316920      -0.07110111       0.09843129      -5.31595817       0.92456528 F F F
 P             38.40644279       1.68343090       8.92768888      -0.00136738      -0.00224580       0.00072625      -0.17722716      -0.13032760      -0.17847542      -5.32107860       0.91658425 F F F
 P             36.91964484       2.06201084       7.33133520      -0.00279196       0.00033770       0.00032324      -0.34927260       0.24512554       0.16908454      -5.23373349       0.92494340 F F F
 P             23.95313589      12.72027473      37.16673377      -0.00163387       0.00140583       0.00093395      -0.03306241       0.06256340       0.10528191      -5.30019534       0.92209303 F F F
 P             25.00398564      11.84966370      35.45770718      -0.00239202       0.00046315       0.00295631       0.22282718       0.17106377      -0.26714444      -5.21613939       0.91642002 F F F
 P             24.29519371      10.55388561      37.05860518      -0.00012263       0.00110969       0.00237133      -0.18255090      -0.07555216       0.04545208      -5.23796421       0.92667060 F F F
 P             22.85131002      11.52027414      35.68893136      -0.00245919      -0.00209954       0.00320435       0.00246079      -0.12001277       0.10159080      -5.32049627       0.92121372 F F F
 P             11.97836091      32.09469380      21.64797593       0.00154145       0.00175583      -0.00128739      -0.08631456      -0.13195191       0.06181654      -5.26297739       0.92200139 F F F
 P             12.75324146      33.68245259      20.36874848      -0.00073538       0.00115305      -0.00046099       0.08343887       0.15443838      -0.02748408      -5.25240713       0.91644491 F F F
 P             14.07256010      32.71155758      21.84254727      -0.00020376       0.00144501      -0.00171076       0.02517681       0.06866013       0.04283080      -5.29009462       0.92033818 F F F
 P             13.41958950      31.62042850      20.06183931      -0.00070549       0.00254586      -0.00120627      -0.02961413      -0.12586725      -0.07822722      -5.25766504       0.92316931 F F F
 P             37.06557650       3.79193236       3.20920757       0.00038489      -0.00224133       0.00170730      -0.18652213       0.11279132       0.03742611      -5.30446478       0.93399482 F F F
 P             36.42464832       1.70956192       3.47930019       0.00208449      -0.00182599       0.00452577      -0.06184785       0.05821288      -0.25551990      -5.33635427       0.93496259 F F F
 P             34.91950685       3.26820063       3.01616640       0.00263672      -0.00043894       0.00486050       0.23992105       0.07176001       0.23899835      -5.32639265       0.93831172 F F F
 P             36.32852987       2.67296060       1.46497760       0.00000579       0.00031280       0.00152646       0.17671837      -0.18511442       0.08384687      -5.28637999       0.93675411 F F F
