     125
 Properties=species:S:1:pos:R:3:forces:R:3:local_energy:R:1:hirshfeld_v:R:1 Lattice="9.1075620000        0.0000000000    0.0000000000    0.0000000000    9.1075620000    0.0000000000    0.0000000000    0.0000000000    9.1075620000" energy=-964.476623 virial="188.21961354         17.84890355      2.59987623     17.84890355    203.98207555    -30.09623773      2.59987623    -30.09623773    185.85745377" stress="-0.24914861          -0.02362681     -0.00344149     -0.02362681     -0.27001357      0.03983876     -0.00344149      0.03983876     -0.24602179" volume=755.451189
 C              8.35834846       3.10682619       2.98379214      -4.56243825       1.34865539      -2.29798462      -7.94334683       0.91768929
 C              5.91582600       0.89333343       3.67235115      -3.90379940       4.04990618      -5.61613304      -7.89480181       0.92138089
 C              5.96669174       4.33999920       0.28897383       4.10397747       3.48327571       3.95859191      -8.46954440       0.91693449
 C              6.75613521       8.63649157       1.53293019      -0.47463463      -2.36135703       3.73775597      -8.63569075       0.91447885
 C              5.84463219       6.01508932       0.81335993      -4.82164734      -5.03474981       2.30342340      -6.63347038       0.91954297
 C              8.63925116       0.96398990       5.59148751       3.02411656       2.90739591       5.61185262      -8.09140577       0.91705365
 C              5.34793308       6.63465855       2.07477548      -1.78812445       2.50385329       0.02764958      -7.93450775       0.91808635
 C              2.65213116       1.97904590       3.77758903      -1.12053357       4.67073481       0.26168293      -8.28219710       0.91008371
 C              6.41502969       0.50814731       4.91399418       2.45230631      -2.99551358       0.15711727      -6.85166715       0.90956311
 C              4.18430542       0.13081191       0.53060656      -7.36416390      -2.73292797       5.08795013      -6.36864199       0.90775099
 C              1.20501242       7.52252745       7.85611923       0.95527325       9.56393205       3.57070995      -7.70598104       0.91359785
 C              2.38661841       0.00142989       4.84370202       5.39267056      -3.49082271      -0.26829617      -6.94591937       0.91719801
 C              6.86508898       6.60882950       0.31249867      11.21224330       4.58759175      -1.20407039      -6.98772711       0.92542594
 C              3.19257389       2.97317272       0.49341128      -2.65175116       0.41156798      -3.12165143      -6.23742468       0.91088222
 C              7.70704665       3.94912996       0.59706444      -4.23241074       1.08545073      -2.44346433      -7.51455402       0.91546322
 C              8.07495573       8.07008318       3.74463787       0.16551558       2.13399027      -0.80905491      -7.26293525       0.91900840
 C              2.24602497       1.28535023       5.23178435      -0.01235777       6.80631100      -0.78847908      -8.14319020       0.91412392
 C              6.52342790       7.75507083       6.75200949       3.61022424      -0.17165781      -0.82076411      -8.33006996       0.91749654
 C              2.11896537       8.02249617       5.81112547       0.40308137       2.83223722       3.95613419      -7.61759270       0.91375504
 C              3.30383187       7.51181695       3.36561757      -2.79278904      -1.26019284      -2.39680679      -6.65671929       0.91395174
 C              6.90350467       5.31816046       6.46059483       2.74540042       2.98326942      -0.72087449      -8.75293392       0.91459035
 C              6.04355045       5.39654014       3.94453975      -2.32753162      -0.97108128      -4.88322893      -8.19471286       0.91608012
 C              6.07887869       0.00795090       6.24465453      -1.51957535      -0.35001368      -1.89124909      -8.01021595       0.91519878
 C              3.89412939       4.19728370       0.85005430       3.99932448      -1.89273709       4.54041185      -8.00667973       0.91670630
 C              9.05672359       7.43020409       8.49744642      -9.52613080      -0.02751521      -0.52052149      -7.99930327       0.91632138
 C              5.19159267       3.42395150       1.18924723      -3.65448007       1.24415642      -7.55204393      -7.86218012       0.91489435
 C              7.26396376       2.29495990       7.54791022      -6.58139330       1.44322763      -3.38534902      -8.13401770       0.90784990
 C              8.91894439       8.75143811       6.25655811      -5.22989870       0.53334963       0.42041420      -8.51679572       0.90824935
 C              0.16529314       0.80755841       2.42479731       2.78514464      -3.14938847       9.32865503      -6.55786692       0.91635756
 C              6.94731205       0.76128289       2.30708207       1.14724464      -0.48159992       4.90194353      -8.58141326       0.91818040
 C              1.77676695       5.63142417       8.32613318       3.87772767       0.02437821      -1.38162579      -7.17680085       0.90725356
 C              3.86072285       8.54635403       4.19283921      -0.91907003       0.15592252      -1.39495783      -8.68737965       0.90733815
 C              3.51536410       8.04354375       6.39073072      -1.67124513      -2.02843875       1.83249964      -7.55534608       0.91708476
 C              5.47101268       7.02361520       7.62841196       2.65747536       1.25249913       1.62760163      -8.62582459       0.91610340
 C              8.41016865       2.14938463       6.70108000       1.15623591      -1.46693553       1.57643147      -7.21480585       0.91369341
 C              6.27904468       6.66750953       4.54184099       1.35285043       4.40580090       2.96154272      -8.03590145       0.91747450
 C              0.25349988       5.27834220       6.12123796       3.08185941      -2.47072909       9.49493602      -6.94633915       0.92445141
 C              1.33707207       8.72950710       2.37445070      -1.19985721       2.51317607      -1.42915186      -7.00026537       0.90813810
 C              5.09368638       0.88935343       7.48541413       1.17828777      -1.38790845       4.12378409      -7.09190975       0.91065998
 C              8.97522002       3.01991273       5.77250030       7.30962172       3.04047840      -1.56585232      -7.83130408       0.92008707
 C              7.63624447       7.49841973       1.27248124       0.13991693      -0.17956292       3.67832875      -8.02603126       0.92818553
 C              7.67297526       1.27919351       4.60898193      -1.26471589      -3.71607525      -3.21497813      -8.88005879       0.91387788
 C              6.32874465       8.78495394       0.18031151      -6.94666437       1.08894183       1.49796506      -8.32787441       0.91587785
 C              1.51064399       4.52405392       8.80993598      -0.58708649      -6.10163375       3.54611442      -6.58413330       0.91602555
 C              4.98173623       0.02755948       3.08614292      -6.42116254      -0.52630373      -0.34427968      -8.17109625       0.91515886
 C              2.11620578       7.64741945       0.08454550      -1.56388212       4.99881620      -3.20838146      -8.10575383       0.90608785
 C              0.49068812       2.22403021       2.50783095      -5.65147136       6.50097726       4.34608661      -8.51208749       0.91750991
 C              8.04015573       0.56145387       3.27396817       3.56850314      -2.71863529      -1.41647332      -8.74506612       0.91427949
 C              1.57107266       7.65272005       3.24220100       4.07373310       4.14028024       2.43253683      -8.48134099       0.90789385
 C              3.12226351       1.75595617       2.36408630       0.11984214      -1.44756464       3.55662475      -7.37093730       0.90960068
 C              5.96609064       2.49327707       3.59044684      -8.39060470      -1.77268011      -1.84223807      -8.43245975       0.91211120
 C              1.11819914       3.20565235       1.64755797       4.42758499      -1.77560075      -1.80457043      -8.37314941       0.91622533
 C              1.09592204       5.43527460       2.13277244       2.80033407       0.55042947       0.74954135      -7.73536478       0.90600386
 C              7.21359894       6.68913088       5.68393837      -4.41729683      -2.16216628       3.42280852      -8.24525360       0.91437309
 C              3.16535139       4.56323465       3.26716482      -1.10591758      -2.12245515      -0.82383605      -7.05508114       0.92426693
 C              7.25825332       2.54969841       3.93933022      12.94684884      -0.22172165       6.15513329      -6.87418160       0.92090457
 C              6.66485012       4.13365827       5.62837313      -1.14934739       0.81604058       6.27849909      -7.97833034       0.91294180
 C              5.88403151       5.61381925       7.50442161       2.38792205       6.30981138      -5.45611211      -7.12577314       0.91331742
 C              1.02999240       6.29921793       7.43802749       0.64361108      -5.12304941      -6.71351912      -6.42603859       0.91777021
 C              3.79428319       3.70562107       6.11882445      -8.73895531       5.24649669       0.98040915      -6.29860771       0.91304505
 C              5.92161841       8.03262378       2.53539954      -3.43720440      -0.56799162       3.58056139      -8.39426231       0.91889163
 C              2.67925348       3.67378104       8.37871114      -1.71597702      -1.43436019      -3.20334405      -8.88044490       0.91590164
 C              5.85097106       7.47756341       9.01444629      -3.94514581      -0.97061083      -5.82053375      -8.02975594       0.91876870
 C              5.92308473       3.46386995       2.31613498       3.57434666       0.12577420       8.81506167      -6.98803317       0.91834966
 C              8.50695472       6.72995097       5.20322303       3.48753626       3.26593041      -1.02271061      -7.87226189       0.91264901
 C              4.01168069       0.75493492       2.35258345       1.76868404      -1.91206269      -8.44870764      -6.33333757       0.90816302
 C              1.64661078       0.95836143       7.34550376       1.41979827       2.88491097       1.44083318      -7.61843644       0.90584223
 C              4.84733594       2.96443857       6.12668428       3.23378474     -12.84247122       3.28257099      -7.12658289       0.91630373
 C              3.44345079       8.21163291       8.86840653       1.89236395       3.19925948       3.72688553      -6.47667694       0.91738646
 C              8.23754392       5.16237562       7.16385344       0.58624712       1.25011144      -0.05401408      -6.65719726       0.91620764
 C              2.42198307       3.36186525       6.77456892       2.58974645       1.80603461      -0.02647012      -8.21698719       0.90854113
 C              0.11127619       5.58427432       4.77957568       3.18847684       3.01863908      -1.38185456      -7.21698335       0.91581920
 C              9.06275279       0.76437946       1.17830905       1.93748872       2.14991590      -7.82936714      -6.37319832       0.92068557
 C              9.10299911       7.68381326       0.87990889      -2.02177987      -4.24653881      -3.22593482      -8.03702623       0.91253125
 C              5.54187862       4.52294280       8.06053846      -5.88159631      -8.08453577       1.36453186      -6.90312508       0.91120540
 C              3.68438224       3.22897682       3.84146036      -1.66053399      -2.74641880       0.40013428      -7.52753889       0.90552193
 C              8.23352749       6.23672184       8.39420310      -1.90497026      -4.30166788      -1.70165442      -7.45507113       0.92451079
 C              3.61444527       5.24812331       2.01487505       3.39231509      -1.79216675       3.86313432      -7.01721000       0.92592906
 C              4.21163722       1.60290359       6.78384042      -3.07701513       3.90096084      -1.80538582      -7.74302363       0.89853180
 C              4.17011584       4.81494945       5.37243243      -2.23047855       7.78637547       2.36991060      -8.46873111       0.91659093
 C              7.32645985       3.37193822       1.91190495       2.83065388      -1.38274976      -0.70687874      -8.35235946       0.91380965
 C              7.33047629       5.53033934       3.30542569      -0.20127730      -3.36076389      -0.15128527      -7.30668434       0.91370603
 C              7.73662801       6.47596839       2.42258417       6.90036753       1.09324408      -1.52665924      -7.08621298       0.91687302
 C              8.50159036       5.28158449       0.26305371       1.12856438      -3.60074928       7.13669589      -6.92716957       0.92297479
 C              0.79296810       1.66010819       5.18723926      -0.82012128       2.92805064      -5.49531933      -7.93585925       0.91886299
 C              7.93647525       2.49460677       8.82323302       1.44281152       5.14426096      -2.41578750      -7.46069943       0.91708710
 C              6.50414719       1.02782480       7.46172536       3.32730937      -0.30495563      -0.79219829      -7.87540934       0.91635407
 C              5.18595509       0.84861530       0.01607485      -0.48186213       2.02113119      -1.00550355      -7.88367809       0.91180068
 C              3.80803561       6.68118908       7.12702246       1.87904258       3.61128589       3.73573974      -7.76008314       0.91411436
 C              1.36233645       1.06407290       0.67845872       0.48020108      -1.43740425      -1.51825198      -8.39435417       0.90869653
 C              4.35111953       6.14550050       6.03891471       1.29366138      -7.75347054      -3.10043086      -6.87258746       0.91334505
 C              1.25800022       8.35427555       0.99684088       2.59505070       1.54820979       1.86102460      -7.50620769       0.90911089
 C              2.71035581       1.97185093       6.49862800      -0.98285393      -9.35390665       3.26551389      -8.35424409       0.90935707
 C              1.21259902       4.02725463       6.07770381      -4.30109768      -1.73887633       0.92431801      -6.95644323       0.91823394
 C              3.38299480       5.90325757       8.35329193      -3.51895237       1.12268401      -0.81955825      -9.38652048       0.90758344
 C              1.11688765       1.58986156       8.54461449      -0.05864094       0.12046711      -7.14679614      -6.62858744       0.90742028
 C              1.22007633       2.27733677       3.65607594       1.92440456      -1.62655017       7.02212287      -5.83868501       0.91371393
 C              0.41518643       3.90892007       0.46747294       4.59015114      -2.67162504      -6.00839180      -7.76722791       0.92589326
 C              1.28602418       8.25778093       4.62422799       2.33790868      -2.84784151      -5.39069645      -8.12519987       0.91238474
 C              7.94399809       3.51703989       4.79573249      -2.93323975       4.70736066       4.17470853      -8.13004180       0.91353231
 C              5.21852374       6.94733937       5.36344326      -2.43468402      -2.01553478      -0.93698747      -6.77696781       0.91660075
 C              6.65334727       8.00104786       4.01803777       1.24541449      -1.58875291      -3.67622690      -8.09715112       0.92282264
 C              2.11505823       4.30851436       2.13534077      -6.54466605       4.15699457       2.15313059      -7.81020979       0.92277245
 C              0.22900054       2.87700598       8.24908321       0.76633204      -3.54877307       2.49029063      -7.75687772       0.92137748
 C              9.06153238       8.06204121       4.97881270      -4.52791512      -3.27882743       1.19199005      -8.13552207       0.91012032
 C              1.69379706       5.65246263       4.36359689      -2.14149986       1.63510061       0.53156837      -7.39950940       0.91232486
 C              8.34960337       4.78894736       4.01775544      -0.56253764      -4.58583108      -2.37577808      -8.04936900       0.90845308
 C              9.07461995       6.02763954       1.54838572      -2.64262688       0.70804973      -2.86126070      -7.96197901       0.91625396
 C              5.48737897       2.02758921       0.81266776       2.90669136       0.36209484      -0.30079798      -7.42106340       0.90984053
 C              5.47575772       4.38452607       4.81812799       0.46114326      -0.21897720      -1.18901522      -9.03515992       0.91739958
 C              7.98399851       1.25607852       0.49578835      -3.14457492       3.54961638      -5.93463811      -8.54704235       0.91178398
 C              1.28534112       6.33036580       3.15444053       1.18616459      -3.72082640       1.77431401      -7.28838510       0.91089281
 C              3.76680568       6.90565406       1.96595833      -1.11056407      -4.00025528      -1.66279953      -7.71452945       0.91595627
 C              6.01254831       3.39779459       7.04350612       2.60149091      -1.53159733      -3.21522923      -8.85023936       0.90227167
 C              4.90995953       2.91576776       4.61083077       2.69219109       4.04338812      -3.58709229      -8.90697290       0.90776650
 C              4.69083159       8.17017529       5.44941865      -5.25482048       5.99849680       1.39989466      -7.76966616       0.91846891
 C              5.01027022       5.59038549       2.96976649      -1.18389505      -1.32059382      -3.60159572      -6.19808810       0.92364785
 C              3.28068955       6.88050808       0.37709860       2.17719093       1.36923946       1.34520339      -6.92741890       0.91562990
 C              2.29620764       2.19486780       1.29786402      -1.29415973      -1.15374504      -1.52511983      -8.89518633       0.91096947
 C              7.86404281       8.19661454       7.50795535       4.37140800       3.67438007       0.75020296      -8.06705278       0.91320666
 C              7.28883651       0.24392783       8.44931296       4.36541366       0.37113153      -2.18492282      -8.35238085       0.90928889
 C              3.00047719       5.42967345       4.57430944       1.11954851      -1.98728173      -3.07321694      -7.14445879       0.91017342
 C              6.93939758       1.91383576       1.38696329      -1.99972893      -4.65516853       0.04978438      -8.57793589       0.92330118
 C              1.09663243       8.80526380       6.89768494       6.95316367      -3.73711501       1.44315825      -9.16952987       0.90622558
 C              3.90606030       4.57209631       8.50600753       2.23941151       1.27596220      -0.18005733      -8.70178485       0.90958476
