      60
 Properties=species:S:1:pos:R:3:forces:R:3:local_energy:R:1:hirshfeld_v:R:1 Lattice="18.0000000000       0.0000000000    0.0000000000    0.0000000000   18.0000000000    0.0000000000    0.0000000000    0.0000000000   18.0000000000" energy=-521.677455 virial="1.87604672           -0.29654413      0.02523268     -0.29654413      1.65077356      0.08621064      0.02523268      0.08621064      1.62106287" stress="-0.00032168           0.00005085     -0.00000433      0.00005085     -0.00028305     -0.00001478     -0.00000433     -0.00001478     -0.00027796" volume=5832.000000
 C              7.28766000       6.32384000      11.08071000       0.10436466      -0.25250497      -0.11643903      -8.69539782       0.85398012
 C              8.17010000       7.19820000      11.83431000       0.26813654      -0.06861776       0.02228657      -8.69651957       0.85395875
 C              7.82312000       5.40379000      10.17174000      -0.09986425       0.11213108       0.23124515      -8.69418232       0.85401314
 C              9.55575000       7.11947000      11.65181000      -0.26165360      -0.01638377       0.08895920      -8.69138595       0.85399506
 C             10.34747000       8.33446000      11.57854000      -0.05453494       0.28140192       0.10059458      -8.69541648       0.85408955
 C              7.52513000       8.49407000      11.94969000       0.12990767       0.24372018       0.07165680      -8.69171349       0.85396964
 C              8.28815000       9.66528000      11.88021000      -0.16225069      -0.20868974       0.09464338      -8.69368895       0.85397520
 C              9.72519000       9.58294000      11.69074000       0.16692193      -0.18425778       0.04109981      -8.69154586       0.85408450
 C              6.04281000       5.93248000       8.54449000       0.16675711      -0.21300819       0.06197246      -8.69286291       0.85394107
 C              5.48781000       6.88671000       9.48799000       0.04426396       0.01222556       0.25345451      -8.69601905       0.85397162
 C              7.19130000       5.20716000       8.87936000      -0.27861461       0.01900377      -0.03284881      -8.69231286       0.85407920
 C              6.09683000       7.07853000      10.73395000      -0.17295103      -0.04914194      -0.24835241      -8.69498178       0.85384843
 C              6.24545000       8.42128000      11.26831000      -0.17680657       0.23174223      -0.07469551      -8.69589649       0.85404744
 C              5.00000000       8.02796000       8.73412000      -0.07241743       0.26529111       0.10526637      -8.69341091       0.85401308
 C              5.14341000       9.32046000       9.25092000      -0.12927647      -0.21593849      -0.04471331      -8.69150385       0.85408342
 C              5.77472000       9.52231000      10.54328000       0.03952184      -0.21673590       0.19828563      -8.69527918       0.85401938
 C              8.09699000       5.52910000       6.60450000      -0.00189300      -0.16324630       0.27822513      -8.69287288       0.85381601
 C              6.90696000       6.28678000       6.25862000      -0.27710769       0.00914747       0.12043176      -8.69783424       0.85407565
 C              8.23661000       5.00000000       7.89356000      -0.04984631       0.02459352      -0.29479888      -8.69417625       0.85397476
 C              5.89729000       6.48231000       7.20819000       0.14512930      -0.05021654      -0.21943807      -8.69587910       0.85397937
 C              5.25014000       7.77861000       7.32528000       0.05435965       0.21559015      -0.21124461      -8.69756653       0.85397970
 C              7.30750000       7.38081000       5.39018000      -0.16596478       0.18421807      -0.04172659      -8.69150208       0.85407898
 C              6.68539000       8.62933000       5.50232000       0.05338113      -0.28077466      -0.10106601      -8.69548694       0.85409230
 C              5.63711000       8.83263000       6.48814000      -0.10615819      -0.23620262       0.10639002      -8.69556469       0.85402605
 C             10.61144000       5.67417000       7.94558000      -0.20660266      -0.19919771       0.11478233      -8.69589191       0.85404640
 C             10.46803000       6.22407000       6.60851000      -0.24728550      -0.03547707      -0.17446794      -8.69563421       0.85392756
 C              9.51581000       5.07072000       8.57587000       0.31742061       0.07415920      -0.14182868      -8.69581094       0.85400528
 C              9.23212000       6.15584000       5.95340000       0.34049421      -0.03696071       0.05438130      -8.69636885       0.85403410
 C              8.74452000       7.29848000       5.20075000       0.16457002       0.21151336      -0.09527753      -8.69370843       0.85397518
 C             11.25804000       7.44140000       6.53754000      -0.03839027       0.21608854      -0.19752837      -8.69535009       0.85401177
 C             10.78743000       8.54244000       5.81255000       0.17637103      -0.22998450       0.07404935      -8.69586481       0.85404610
 C              9.50772000       8.46964000       5.13124000      -0.13202416      -0.24339270      -0.07148258      -8.69178066       0.85397400
 C             10.11096000       6.16490000      10.70855000      -0.13711438      -0.25000471      -0.09406476      -8.69726277       0.85416549
 C             11.24922000       6.78972000      10.05652000       0.08868582      -0.11083769      -0.28207378      -8.69295841       0.85395653
 C              9.26140000       5.31910000       9.98455000       0.21320342       0.16091800       0.18532387      -8.69643854       0.85396393
 C             11.49086000       6.55105000       8.69835000       0.03036027      -0.02562154       0.31845128      -8.69209662       0.85409401
 C             11.88928000       7.64325000       7.82994000       0.12986249       0.21796787       0.04432042      -8.69152936       0.85407944
 C             11.39574000       8.13108000      10.59273000       0.10658891       0.23641110      -0.10550881      -8.69564820       0.85402301
 C             11.78269000       9.18516000       9.75574000      -0.05398778      -0.21419210       0.20979497      -8.69758933       0.85397913
 C             12.03279000       8.93571000       8.34690000       0.07160176      -0.26460788      -0.10668296      -8.69341627       0.85401390
 C              9.74533000      10.63990000       6.00027000      -0.10466404       0.25108135       0.11507413      -8.69543945       0.85398045
 C             10.93620000       9.88519000       6.34702000       0.16859427       0.04837764       0.24565045      -8.69502805       0.85384544
 C             11.54502000      10.07699000       7.59304000      -0.04376157      -0.01152380      -0.25113352      -8.69603933       0.85397820
 C              9.20974000      11.55982000       6.90925000       0.09918477      -0.11072689      -0.23077964      -8.69408029       0.85401128
 C              6.92189000      10.79886000       6.37217000       0.13680356       0.25054823       0.09491401      -8.69721874       0.85416025
 C              7.47719000       9.84434000       5.42897000       0.25944199       0.01397203      -0.08815380      -8.69137601       0.85399212
 C              8.86285000       9.76560000       5.24659000      -0.26731631       0.06730277      -0.02214048      -8.69654044       0.85396489
 C              7.77145000      11.64456000       7.09627000      -0.21424055      -0.16045540      -0.18585933      -8.69649252       0.85396044
 C              6.42112000      11.28960000       9.13514000       0.20613161       0.19778808      -0.11336839      -8.69583003       0.85404620
 C              5.54173000      10.41268000       8.38235000      -0.02842240       0.02457106      -0.31752534      -8.69222798       0.85409674
 C              5.78360000      10.17405000       7.02416000      -0.09107538       0.11059169       0.28676268      -8.69306294       0.85396315
 C              7.51683000      11.89289000       8.50490000      -0.31619422      -0.07257909       0.14147740      -8.69572839       0.85400301
 C              8.93558000      11.43467000      10.47645000       0.00220610       0.16237376      -0.27724745      -8.69280089       0.85381398
 C              7.80046000      10.80795000      11.12755000      -0.34146144       0.03567445      -0.05589064      -8.69644847       0.85403666
 C              6.56458000      10.73974000      10.47227000       0.24917517       0.03416826       0.17610998      -8.69575709       0.85393602
 C              8.79593000      11.96360000       9.18735000       0.05122322      -0.02326801       0.29438311      -8.69414419       0.85397361
 C             10.98991000      11.03123000       8.53658000      -0.16622130       0.21233270      -0.06287870      -8.69286765       0.85394506
 C             11.13547000      10.48148000       9.87290000      -0.14633429       0.04920067       0.21805228      -8.69586555       0.85398101
 C             10.12566000      10.67705000      10.82237000       0.27927109      -0.01081936      -0.12123997      -8.69791778       0.85408165
 C              9.84135000      11.75643000       8.20170000       0.28050172      -0.01873795       0.03241697      -8.69223920       0.85408118
