     120
 Properties=species:S:1:pos:R:3:forces:R:3:local_energy:R:1:hirshfeld_v:R:1 Lattice="50.0000000000       0.0000000000    0.0000000000    0.0000000000   50.0000000000    0.0000000000    0.0000000000    0.0000000000   50.0000000000" energy=-980.909379 virial="195.95674228        -10.41992701    -34.02608767    -10.41992701    125.96788263     -4.95171881    -34.02608767     -4.95171881    161.18800722" stress="-0.00156765           0.00008336      0.00027221      0.00008336     -0.00100774      0.00003961      0.00027221      0.00003961     -0.00128950" volume=125000.000000
 C              7.28766000       6.32384000      11.08071000       0.19312343      -0.26877014      -0.12431991      -8.76815065       0.85398012
 C              8.17010000       7.19820000      11.83431000       0.38416364      -0.10692594       0.00385601      -8.76927862       0.85395875
 C              7.82312000       5.40379000      10.17174000       0.06214327       0.10166619       0.23011076      -8.69418232       0.85401314
 C              9.55575000       7.11947000      11.65181000      -0.43686430      -0.15965900       0.31625006      -8.66328413       0.85440810
 C             10.34747000       8.33446000      11.57854000       0.36454735      -0.13786315      -0.67395815      -8.19622250       0.85973556
 C              7.52513000       8.49407000      11.94969000       0.27008981       0.25097145       0.08680939      -8.69171349       0.85396964
 C              8.28815000       9.66528000      11.88021000       0.12843799      -0.20776302       0.08324170      -8.69368896       0.85397520
 C              9.72519000       9.58294000      11.69074000      -0.45606560       0.07809518       0.55180841      -8.58896328       0.85645101
 C              6.04281000       5.93248000       8.54449000       0.16245883      -0.21151009       0.06184884      -8.69286291       0.85394107
 C              5.48781000       6.88671000       9.48799000       0.04382127       0.01242798       0.25338918      -8.69601904       0.85397162
 C              7.19130000       5.20716000       8.87936000      -0.24233205      -0.00205992      -0.03029152      -8.69231286       0.85407920
 C              6.09683000       7.07853000      10.73395000      -0.18424882      -0.04660505      -0.24885125      -8.69498178       0.85384843
 C              6.24545000       8.42128000      11.26831000      -0.19805655       0.23093962      -0.07528613      -8.69589649       0.85404744
 C              5.00000000       8.02796000       8.73412000      -0.07241743       0.26529111       0.10526637      -8.69341091       0.85401308
 C              5.14341000       9.32046000       9.25092000      -0.12927647      -0.21593850      -0.04471332      -8.69150385       0.85408342
 C              5.77472000       9.52231000      10.54328000       0.03665983      -0.21670910       0.19762789      -8.69527918       0.85401938
 C              8.09699000       5.52910000       6.60450000       0.08765976      -0.15090358       0.16776549      -8.69287288       0.85381601
 C              6.90696000       6.28678000       6.25862000      -0.28966648       0.00724240       0.10255411      -8.69783424       0.85407565
 C              8.23661000       5.00000000       7.89356000       0.05802696      -0.10438973      -0.21261582      -8.69417625       0.85397476
 C              5.89729000       6.48231000       7.20819000       0.14249444      -0.04904667      -0.21887031      -8.69587910       0.85397937
 C              5.25014000       7.77861000       7.32528000       0.05435964       0.21559015      -0.21124461      -8.69756653       0.85397970
 C              7.30750000       7.38081000       5.39018000      -0.09611709       0.20131684      -0.05312937      -8.69150209       0.85407898
 C              6.68539000       8.62933000       5.50232000       0.08142506      -0.28723574      -0.11194947      -8.69548693       0.85409230
 C              5.63711000       8.83263000       6.48814000      -0.10760147      -0.23608182       0.10703654      -8.69556469       0.85402605
 C             10.61144000       5.67417000       7.94558000       0.05068317      -0.16879167      -0.16790714      -8.13517965       0.85647644
 C             10.46803000       6.22407000       6.60851000       0.09306442       0.84269420       0.57926671      -8.24275114       0.85353408
 C              9.51581000       5.07072000       8.57587000       0.08478784      -0.18075595      -0.32295773      -8.67043817       0.85444103
 C              9.23212000       6.15584000       5.95340000       0.14159352      -0.46371914      -0.22047450      -8.68531048       0.85406470
 C              8.74452000       7.29848000       5.20075000      -0.04571786       0.18414601      -0.33742442      -8.69370843       0.85397518
 C             11.25804000       7.44140000       6.53754000      -5.56891041      -1.40775372      -4.33284013     -10.15413151       0.86473030
 C             10.78743000       8.54244000       5.81255000      -1.33808202       0.31927208      -1.45697200      -8.41608928       0.86176393
 C              9.50772000       8.46964000       5.13124000      -0.32714841      -0.32794458      -0.29009801      -8.61695596       0.85459634
 C             10.11096000       6.16490000      10.70855000      -0.19476419      -0.46589419       0.25842098      -8.37889972       0.85789355
 C             11.24922000       6.78972000      10.05652000      -4.39952087      -2.62899959       3.85293028      -7.11939803       0.87255814
 C              9.26140000       5.31910000       9.98455000      -0.39186166      -0.24484754       0.23592769      -8.68623474       0.85420754
 C             11.49086000       6.55105000       8.69835000      -4.29404798      -1.27814897       0.65711657     -10.02069827       0.86899332
 C             11.88928000       7.64325000       7.82994000     -61.60725884     -16.72512195      14.71722797       5.55836054       0.87696938
 C             11.39574000       8.13108000      10.59273000      -7.19299836      -1.16304191       4.98453618      -9.16195020       0.87002936
 C             11.78269000       9.18516000       9.75574000     -51.69079617      -1.61546878      39.61561121      -0.20684557       0.88003030
 C             12.03279000       8.93571000       8.34690000     -29.37067401      30.23399534     -22.21253751      -0.34833213       0.89660385
 C              9.74533000      10.63990000       6.00027000      -0.15418814      -0.21429959       0.04903390      -8.57847423       0.85550903
 C             10.93620000       9.88519000       6.34702000      -2.73614569       0.66539684      -2.41808543      -8.02230905       0.86975876
 C             11.54502000      10.07699000       7.59304000      -3.31112251       4.16297245      -0.68385284      -9.51499378       0.86847645
 C              9.20974000      11.55982000       6.90925000      -0.30944401       0.26021055      -0.26898019      -8.68983744       0.85412956
 C              6.92189000      10.79886000       6.37217000       0.18029262       0.24614249       0.07616499      -8.69721874       0.85416025
 C              7.47719000       9.84434000       5.42897000       0.33868702       0.03256359      -0.10252516      -8.69137601       0.85399212
 C              8.86285000       9.76560000       5.24659000      -0.53551680       0.26777560      -0.22744953      -8.69654043       0.85396489
 C              7.77145000      11.64456000       7.09627000      -0.04431161      -0.11837125      -0.15831048      -8.69649252       0.85396044
 C              6.42112000      11.28960000       9.13514000       0.18637249       0.19602532      -0.11783629      -8.69583003       0.85404620
 C              5.54173000      10.41268000       8.38235000      -0.02855166       0.02453032      -0.31747367      -8.69222798       0.85409674
 C              5.78360000      10.17405000       7.02416000      -0.09364184       0.11014568       0.28732088      -8.69306294       0.85396315
 C              7.51683000      11.89289000       8.50490000      -0.17971291      -0.03181364       0.09661126      -8.69572840       0.85400301
 C              8.93558000      11.43467000      10.47645000      -0.32941229       0.24787244       0.26470863      -8.69273138       0.85381435
 C              7.80046000      10.80795000      11.12755000      -0.16793320       0.07008511      -0.05301069      -8.69644846       0.85403666
 C              6.56458000      10.73974000      10.47227000       0.22858088       0.03336632       0.17602648      -8.69575709       0.85393602
 C              8.79593000      11.96360000       9.18735000      -0.30212849       0.37041377      -0.00104907      -8.69414419       0.85397361
 C             10.98991000      11.03123000       8.53658000      -3.44088664       1.78959969       1.26341975      -7.91360347       0.86149631
 C             11.13547000      10.48148000       9.87290000      -5.94542923       3.64937831      -0.52098571     -10.46928454       0.86391844
 C             10.12566000      10.67705000      10.82237000       0.47345162       0.31608875      -0.54233648      -8.37725173       0.85617683
 C              9.84135000      11.75643000       8.20170000       0.19899317       0.22752739       0.24042374      -8.46649859       0.85561442
 C             14.78766000       6.32384000      11.08071000       0.15423202       0.21262723      -0.05027667      -8.57853714       0.85550740
 C             15.67010000       7.19820000      11.83431000       0.53611332      -0.26908063       0.22756564      -8.69651957       0.85395875
 C             15.32312000       5.40379000      10.17174000       0.30874835      -0.25883591       0.26940102      -8.68994973       0.85413111
 C             17.05575000       7.11947000      11.65181000      -0.34083526      -0.03495666       0.10334108      -8.69138595       0.85399506
 C             17.84747000       8.33446000      11.57854000      -0.08258110       0.28785941       0.11147770      -8.69541649       0.85408954
 C             15.02513000       8.49407000      11.94969000       0.32519824       0.32831647       0.29016301      -8.61689623       0.85459201
 C             15.78815000       9.66528000      11.88021000       0.04800847      -0.18132259       0.33681506      -8.69368895       0.85397520
 C             17.22519000       9.58294000      11.69074000       0.09705129      -0.20135759       0.05250594      -8.69154586       0.85408450
 C             13.54281000       5.93248000       8.54449000       3.43831220      -1.78844216      -1.26376673      -7.91347794       0.86149717
 C             12.98781000       6.88671000       9.48799000       3.30917913      -4.16205218       0.68913356      -9.51444550       0.86847772
 C             14.69130000       5.20716000       8.87936000      -0.19706176      -0.22721129      -0.24105274      -8.46655176       0.85561305
 C             13.59683000       7.07853000      10.73395000       2.72944976      -0.66554475       2.41263436      -8.02225695       0.86975433
 C             13.74545000       8.42128000      11.26831000       1.33777678      -0.31755355       1.45684847      -8.41627037       0.86176203
 C             12.50000000       8.02796000       8.73412000      29.35851409     -30.24174828      22.18637735      -0.35269567       0.89660401
 C             12.64341000       9.32046000       9.25092000      61.63082189      16.73354164     -14.71460498       5.56405961       0.87696844
 C             13.27472000       9.52231000      10.54328000       5.57208629       1.40746169       4.33608225     -10.15426864       0.86473210
 C             15.59699000       5.52910000       6.60450000       0.32966205      -0.24866274      -0.26378430      -8.69280305       0.85381639
 C             14.40696000       6.28678000       6.25862000      -0.47107134      -0.31818298       0.54167994      -8.37713826       0.85617100
 C             15.73661000       5.00000000       7.89356000       0.30338966      -0.36921770       0.00066499      -8.69417625       0.85397476
 C             13.39729000       6.48231000       7.20819000       5.94590365      -3.65100054       0.51849618     -10.46939751       0.86391592
 C             12.75014000       7.77861000       7.32528000      51.68598175       1.62225378     -39.59919203      -0.20781774       0.88002686
 C             14.80750000       7.38081000       5.39018000       0.45701848      -0.07799655      -0.55260664      -8.58889550       0.85644625
 C             14.18539000       8.62933000       5.50232000      -0.36688114       0.13782824       0.67470776      -8.19636604       0.85973875
 C             13.13711000       8.83263000       6.48814000       7.19284976       1.16350403      -4.98323831      -9.16176791       0.87003216
 C             18.11144000       5.67417000       7.94558000      -0.18683331      -0.19743222       0.11925138      -8.69589191       0.85404640
 C             17.96803000       6.22407000       6.60851000      -0.22670179      -0.03467879      -0.17438566      -8.69563422       0.85392756
 C             17.01581000       5.07072000       8.57587000       0.18094503       0.03338472      -0.09693927      -8.69581094       0.85400528
 C             16.73212000       6.15584000       5.95340000       0.16703730      -0.07137762       0.05149756      -8.69636885       0.85403410
 C             16.24452000       7.29848000       5.20075000      -0.12609692       0.21057560      -0.08388987      -8.69370843       0.85397518
 C             18.75804000       7.44140000       6.53754000      -0.03552812       0.21606176      -0.19687083      -8.69535009       0.85401177
 C             18.28743000       8.54244000       5.81255000       0.19761618      -0.22918167       0.07463793      -8.69586481       0.85404610
 C             17.00772000       8.46964000       5.13124000      -0.27219466      -0.25063535      -0.08664386      -8.69178066       0.85397400
 C             17.61096000       6.16490000      10.70855000      -0.18057210      -0.24560255      -0.07531737      -8.69726277       0.85416549
 C             18.74922000       6.78972000      10.05652000       0.09125024      -0.11039211      -0.28263201      -8.69295841       0.85395653
 C             16.76140000       5.31910000       9.98455000       0.04328911       0.11881940       0.15775384      -8.69643854       0.85396393
 C             18.99086000       6.55105000       8.69835000       0.03048922      -0.02558088       0.31839973      -8.69209662       0.85409401
 C             19.38928000       7.64325000       7.82994000       0.12986249       0.21796787       0.04432042      -8.69152936       0.85407944
 C             18.89574000       8.13108000      10.59273000       0.10803227       0.23629033      -0.10615535      -8.69564820       0.85402302
 C             19.28269000       9.18516000       9.75574000      -0.05398778      -0.21419210       0.20979497      -8.69758933       0.85397913
 C             19.53279000       8.93571000       8.34690000       0.07160176      -0.26460788      -0.10668297      -8.69341627       0.85401390
 C             17.24533000      10.63990000       6.00027000      -0.19337628       0.26735746       0.12293945      -8.69543945       0.85398045
 C             18.43620000       9.88519000       6.34702000       0.17988376       0.04584211       0.24614844      -8.69502806       0.85384544
 C             19.04502000      10.07699000       7.59304000      -0.04331888      -0.01172619      -0.25106816      -8.69603933       0.85397820
 C             16.70974000      11.55982000       6.90925000      -0.06280076      -0.10025157      -0.22963948      -8.69408029       0.85401128
 C             14.42189000      10.79886000       6.37217000       0.19410782       0.46648411      -0.25721306      -8.37886490       0.85788861
 C             14.97719000       9.84434000       5.42897000       0.43505913       0.15759241      -0.31589671      -8.66330055       0.85440493
 C             16.36285000       9.76560000       5.24659000      -0.38330514       0.10555656      -0.00369475      -8.69654043       0.85396489
 C             15.27145000      11.64456000       7.09627000       0.39062602       0.24514151      -0.23637320      -8.68629150       0.85420405
 C             13.92112000      11.28960000       9.13514000      -0.05103670       0.16857994       0.17025393      -8.13521725       0.85647732
 C             13.04173000      10.41268000       8.38235000       4.29141474       1.27402932      -0.65889174     -10.02201495       0.86898946
 C             13.28360000      10.17405000       7.02416000       4.39983637       2.62572924      -3.84747145      -7.11958596       0.87256010
 C             15.01683000      11.89289000       8.50490000      -0.08356794       0.18191841       0.32283880      -8.67032848       0.85443907
 C             16.43558000      11.43467000      10.47645000      -0.08722627       0.14998931      -0.16660163      -8.69280089       0.85381398
 C             15.30046000      10.80795000      11.12755000      -0.14270706       0.46267035       0.21879515      -8.68536743       0.85406738
 C             14.06458000      10.73974000      10.47227000      -0.09049843      -0.84391593      -0.57684999      -8.24287894       0.85353807
 C             16.29593000      11.96360000       9.18735000      -0.05657972       0.10576709       0.21200648      -8.69414419       0.85397361
 C             18.48991000      11.03123000       8.53658000      -0.16191734       0.21083281      -0.06275543      -8.69286765       0.85394506
 C             18.63547000      10.48148000       9.87290000      -0.14369600       0.04802946       0.21748375      -8.69586555       0.85398101
 C             17.62566000      10.67705000      10.82237000       0.29179450      -0.00891172      -0.10335169      -8.69791778       0.85408165
 C             17.34135000      11.75643000       8.20170000       0.24416676       0.00233123       0.02985565      -8.69223920       0.85408118
