      60
 Properties=species:S:1:pos:R:3:forces:R:3:local_energy:R:1:hirshfeld_v:R:1 Lattice="200.0000000000      0.0000000000    0.0000000000    0.0000000000  200.0000000000    0.0000000000    0.0000000000    0.0000000000  200.0000000000" energy=-524.253363 virial="1.87604670           -0.29654412      0.02523267     -0.29654412      1.65077361      0.08621061      0.02523267      0.08621061      1.62106281" stress="-0.00000023           0.00000004     -0.00000000      0.00000004     -0.00000021     -0.00000001     -0.00000000     -0.00000001     -0.00000020" volume=8000000.000000
 C              7.28766000       6.32384000      11.08071000       0.11030246      -0.23142295      -0.12980084      -8.73832099       0.85398012
 C              8.17010000       7.19820000      11.83431000       0.26276959      -0.05867851      -0.00076044      -8.73943773       0.85395875
 C              7.82312000       5.40379000      10.17174000      -0.09165837       0.12938605       0.21386414      -8.73713322       0.85401314
 C              9.55575000       7.11947000      11.65181000      -0.26120921      -0.00680630       0.06510207      -8.73431868       0.85399506
 C             10.34747000       8.33446000      11.57854000      -0.06452799       0.27533933       0.07766449      -8.73839359       0.85408954
 C              7.52513000       8.49407000      11.94969000       0.13284213       0.23688526       0.04716213      -8.73465792       0.85396964
 C              8.28815000       9.66528000      11.88021000      -0.15620132      -0.21065988       0.06969670      -8.73664507       0.85397520
 C              9.72519000       9.58294000      11.69074000       0.15442075      -0.18508477       0.01859802      -8.73453598       0.85408450
 C              6.04281000       5.93248000       8.54449000       0.17830652      -0.19025216       0.06001659      -8.73580133       0.85394107
 C              5.48781000       6.88671000       9.48799000       0.06292160       0.02270505       0.23926669      -8.73893236       0.85397162
 C              7.19130000       5.20716000       8.87936000      -0.26230813       0.03885600      -0.03342090      -8.73530701       0.85407920
 C              6.09683000       7.07853000      10.73395000      -0.15175384      -0.03768202      -0.25730951      -8.73786952       0.85384843
 C              6.24545000       8.42128000      11.26831000      -0.15748926       0.22582167      -0.09051376      -8.73884916       0.85404744
 C              5.00000000       8.02796000       8.73412000      -0.04748499       0.26141814       0.10099844      -8.73636791       0.85401308
 C              5.14341000       9.32046000       9.25092000      -0.10361566      -0.21462978      -0.04700695      -8.73451661       0.85408342
 C              5.77472000       9.52231000      10.54328000       0.05695824      -0.21797644       0.17930944      -8.73823852       0.85401938
 C              8.09699000       5.52910000       6.60450000       0.00027304      -0.13859862       0.28500322      -8.73575973       0.85381601
 C              6.90696000       6.28678000       6.25862000      -0.25936867       0.02408100       0.13167486      -8.74077216       0.85407565
 C              8.23661000       5.00000000       7.89356000      -0.04704910       0.04698586      -0.28260072      -8.73710140       0.85397476
 C              5.89729000       6.48231000       7.20819000       0.15837191      -0.03448119      -0.20411036      -8.73877198       0.85397937
 C              5.25014000       7.77861000       7.32528000       0.07606476       0.21466300      -0.19751397      -8.74044454       0.85397970
 C              7.30750000       7.38081000       5.39018000      -0.15346519       0.18503271      -0.01922466      -8.73449098       0.85407898
 C              6.68539000       8.62933000       5.50232000       0.06337050      -0.27470436      -0.07813931      -8.73846312       0.85409230
 C              5.63711000       8.83263000       6.48814000      -0.08273468      -0.23252919       0.11660649      -8.73847174       0.85402605
 C             10.61144000       5.67417000       7.94558000      -0.21546945      -0.17509828       0.11553544      -8.73880069       0.85404640
 C             10.46803000       6.22407000       6.60851000      -0.25433433      -0.01850368      -0.15640253      -8.73852057       0.85392756
 C              9.51581000       5.07072000       8.57587000       0.30376957       0.09558258      -0.13841510      -8.73871160       0.85400528
 C              9.23212000       6.15584000       5.95340000       0.32808581      -0.02026227       0.06936285      -8.73928656       0.85403410
 C              8.74452000       7.29848000       5.20075000       0.15852515       0.21349455      -0.07032930      -8.73666714       0.85397518
 C             11.25804000       7.44140000       6.53754000      -0.05582460       0.21731930      -0.17854973      -8.73830718       0.85401177
 C             10.78743000       8.54244000       5.81255000       0.15705323      -0.22405357       0.08985536      -8.73881450       0.85404610
 C              9.50772000       8.46964000       5.13124000      -0.13496349      -0.23656910      -0.04698544      -8.73472611       0.85397400
 C             10.11096000       6.16490000      10.70855000      -0.14378471      -0.22808574      -0.10574324      -8.74020250       0.85416549
 C             11.24922000       6.78972000      10.05652000       0.06729008      -0.09711445      -0.28537884      -8.73586295       0.85395653
 C              9.26140000       5.31910000       9.98455000       0.20281674       0.17920909       0.17047009      -8.73934162       0.85396393
 C             11.49086000       6.55105000       8.69835000       0.01003827      -0.01287815       0.30941006      -8.73506014       0.85409401
 C             11.88928000       7.64325000       7.82994000       0.10419953       0.21666884       0.04661626      -8.73454386       0.85407944
 C             11.39574000       8.13108000      10.59273000       0.08316619       0.23272532      -0.11571902      -8.73855295       0.85402301
 C             11.78269000       9.18516000       9.75574000      -0.07568439      -0.21325264       0.19605901      -8.74046407       0.85397913
 C             12.03279000       8.93571000       8.34690000       0.04666722      -0.26074149      -0.10241017      -8.73637400       0.85401390
 C              9.74533000      10.63990000       6.00027000      -0.11060230       0.22999979       0.12843408      -8.73836213       0.85398045
 C             10.93620000       9.88519000       6.34702000       0.14739336       0.03691212       0.25460407      -8.73791406       0.85384544
 C             11.54502000      10.07699000       7.59304000      -0.06242406      -0.02199435      -0.23694588      -8.73895299       0.85397820
 C              9.20974000      11.55982000       6.90925000       0.09097681      -0.12798344      -0.21339394      -8.73703294       0.85401128
 C              6.92189000      10.79886000       6.37217000       0.14346292       0.22862867       0.10659188      -8.74015623       0.85416025
 C              7.47719000       9.84434000       5.42897000       0.25899615       0.00438689      -0.06429314      -8.73430793       0.85399212
 C              8.86285000       9.76560000       5.24659000      -0.26195377       0.05736900       0.00090479      -8.73945855       0.85396489
 C              7.77145000      11.64456000       7.09627000      -0.20384535      -0.17874383      -0.17100486      -8.73939548       0.85396044
 C              6.42112000      11.28960000       9.13514000       0.21499691       0.17369069      -0.11411336      -8.73873687       0.85404620
 C              5.54173000      10.41268000       8.38235000      -0.00810381       0.01181860      -0.30847620      -8.73518932       0.85409674
 C              5.78360000      10.17405000       7.02416000      -0.06967911       0.09687915       0.29007322      -8.73596695       0.85396315
 C              7.51683000      11.89289000       8.50490000      -0.30253761      -0.09400214       0.13805961      -8.73862981       0.85400301
 C              8.93558000      11.43467000      10.47645000       0.00005000       0.13772721      -0.28402356      -8.73568674       0.85381398
 C              7.80046000      10.80795000      11.12755000      -0.32905275       0.01896842      -0.07086919      -8.73936506       0.85403666
 C              6.56458000      10.73974000      10.47227000       0.25623109       0.01720233       0.15804136      -8.73864286       0.85393602
 C              8.79593000      11.96360000       9.18735000       0.04842277      -0.04566378       0.28218112      -8.73707111       0.85397361
 C             10.98991000      11.03123000       8.53658000      -0.17777113       0.18957620      -0.06093263      -8.73580694       0.85394506
 C             11.13547000      10.48148000       9.87290000      -0.15957476       0.03345736       0.20272521      -8.73875735       0.85398101
 C             10.12566000      10.67705000      10.82237000       0.26153510      -0.02574377      -0.13249387      -8.74085533       0.85408165
 C              9.84135000      11.75643000       8.20170000       0.26419367      -0.03859341       0.03299369      -8.73523666       0.85408118
