      60
 Properties=species:S:1:pos:R:3:forces:R:3:local_energy:R:1:hirshfeld_v:R:1 Lattice="200.0000000000      0.0000000000    0.0000000000    0.0000000000  200.0000000000    0.0000000000    0.0000000000    0.0000000000  200.0000000000" energy=-525.542683 virial="1.87604670           -0.29654412      0.02523267     -0.29654412      1.65077361      0.08621061      0.02523267      0.08621061      1.62106281" stress="-0.00000023           0.00000004     -0.00000000      0.00000004     -0.00000021     -0.00000001     -0.00000000     -0.00000001     -0.00000020" volume=8000000.000000
 C              7.28766000       6.32384000      11.08071000       0.10923011      -0.23113588      -0.12777211      -8.75981377       0.85398012
 C              8.17010000       7.19820000      11.83431000       0.26083563      -0.05919960       0.00079869      -8.76092791       0.85395875
 C              7.82312000       5.40379000      10.17174000      -0.09141739       0.12720545       0.21352190      -8.75861307       0.85401314
 C              9.55575000       7.11947000      11.65181000      -0.25914223      -0.00753040       0.06611766      -8.75580534       0.85399506
 C             10.34747000       8.33446000      11.57854000      -0.06304041       0.27377555       0.07853390      -8.75986465       0.85408954
 C              7.52513000       8.49407000      11.94969000       0.13141377       0.23542131       0.04847172      -8.75615522       0.85396964
 C              8.28815000       9.66528000      11.88021000      -0.15530623      -0.20870849       0.07092844      -8.75812443       0.85397520
 C              9.72519000       9.58294000      11.69074000       0.15412248      -0.18327450       0.01982559      -8.75601735       0.85408450
 C              6.04281000       5.93248000       8.54449000       0.17593324      -0.19022446       0.05958114      -8.75729593       0.85394107
 C              5.48781000       6.88671000       9.48799000       0.06093735       0.02187309       0.23818539      -8.76043897       0.85397162
 C              7.19130000       5.20716000       8.87936000      -0.26126144       0.03686612      -0.03293989      -8.75679971       0.85407920
 C              6.09683000       7.07853000      10.73395000      -0.15204246      -0.03814913      -0.25471647      -8.75935432       0.85384843
 C              6.24545000       8.42128000      11.26831000      -0.15764521       0.22456234      -0.08862363      -8.76035023       0.85404744
 C              5.00000000       8.02796000       8.73412000      -0.04889314       0.25937673       0.10034877      -8.75784883       0.85401308
 C              5.14341000       9.32046000       9.25092000      -0.10458947      -0.21280675      -0.04613068      -8.75599838       0.85408342
 C              5.77472000       9.52231000      10.54328000       0.05525873      -0.21635757       0.17924264      -8.75970739       0.85401938
 C              8.09699000       5.52910000       6.60450000       0.00004184      -0.13924942       0.28259279      -8.75724690       0.85381601
 C              6.90696000       6.28678000       6.25862000      -0.25891051       0.02303629       0.12958565      -8.76226324       0.85407565
 C              8.23661000       5.00000000       7.89356000      -0.04696704       0.04503469      -0.28134606      -8.75859991       0.85397476
 C              5.89729000       6.48231000       7.20819000       0.15625979      -0.03513984      -0.20357949      -8.76027396       0.85397937
 C              5.25014000       7.77861000       7.32528000       0.07423987       0.21318365      -0.19705452      -8.76192817       0.85397970
 C              7.30750000       7.38081000       5.39018000      -0.15316770       0.18323564      -0.02045425      -8.75597300       0.85407898
 C              6.68539000       8.62933000       5.50232000       0.06188500      -0.27314625      -0.07900831      -8.75993443       0.85409230
 C              5.63711000       8.83263000       6.48814000      -0.08357972      -0.23129439       0.11468878      -8.75995394       0.85402605
 C             10.61144000       5.67417000       7.94558000      -0.21350518      -0.17556518       0.11461121      -8.76029685       0.85404640
 C             10.46803000       6.22407000       6.60851000      -0.25225061      -0.01947149      -0.15657942      -8.75999953       0.85392756
 C              9.51581000       5.07072000       8.57587000       0.30290256       0.09351794      -0.13771351      -8.76020251       0.85400528
 C              9.23212000       6.15584000       5.95340000       0.32694536      -0.02130934       0.06783987      -8.76079591       0.85403410
 C              8.74452000       7.29848000       5.20075000       0.15762293       0.21153050      -0.07155848      -8.75814570       0.85397518
 C             11.25804000       7.44140000       6.53754000      -0.05412324       0.21570767      -0.17848673      -8.75978224       0.85401177
 C             10.78743000       8.54244000       5.81255000       0.15721363      -0.22280314       0.08797232      -8.76031835       0.85404610
 C              9.50772000       8.46964000       5.13124000      -0.13353401      -0.23509768      -0.04829358      -8.75622125       0.85397400
 C             10.11096000       6.16490000      10.70855000      -0.14232417      -0.22802536      -0.10411840      -8.76170385       0.85416549
 C             11.24922000       6.78972000      10.05652000       0.06813613      -0.09756590      -0.28297466      -8.75734620       0.85395653
 C              9.26140000       5.31910000       9.98455000       0.20218611       0.17696741       0.17034399      -8.76080903       0.85396393
 C             11.49086000       6.55105000       8.69835000       0.01131898      -0.01380560       0.30786451      -8.75655849       0.85409401
 C             11.88928000       7.64325000       7.82994000       0.10517230       0.21483635       0.04573842      -8.75602190       0.85407944
 C             11.39574000       8.13108000      10.59273000       0.08401399       0.23149943      -0.11380175      -8.76003780       0.85402301
 C             11.78269000       9.18516000       9.75574000      -0.07385924      -0.21178454       0.19560836      -8.76194804       0.85397913
 C             12.03279000       8.93571000       8.34690000       0.04807363      -0.25869722      -0.10176522      -8.75785580       0.85401390
 C              9.74533000      10.63990000       6.00027000      -0.10952761       0.22971129       0.12641024      -8.75985667       0.85398045
 C             10.93620000       9.88519000       6.34702000       0.14769312       0.03738685       0.25200601      -8.75939574       0.85384544
 C             11.54502000      10.07699000       7.59304000      -0.06043249      -0.02117379      -0.23586427      -8.76045745       0.85397820
 C              9.20974000      11.55982000       6.90925000       0.09073943      -0.12580197      -0.21305019      -8.75851422       0.85401128
 C              6.92189000      10.79886000       6.37217000       0.14201642       0.22857095       0.10496427      -8.76165825       0.85416025
 C              7.47719000       9.84434000       5.42897000       0.25692886       0.00512203      -0.06531792      -8.75579145       0.85399212
 C              8.86285000       9.76560000       5.24659000      -0.26002108       0.05788415      -0.00065141      -8.76094467       0.85396489
 C              7.77145000      11.64456000       7.09627000      -0.20321969      -0.17650315      -0.17087740      -8.76086885       0.85396044
 C              6.42112000      11.28960000       9.13514000       0.21303388       0.17415887      -0.11320370      -8.76023215       0.85404620
 C              5.54173000      10.41268000       8.38235000      -0.00939036       0.01276030      -0.30694034      -8.75668513       0.85409674
 C              5.78360000      10.17405000       7.02416000      -0.07052615       0.09731892       0.28766555      -8.75745244       0.85396315
 C              7.51683000      11.89289000       8.50490000      -0.30167384      -0.09193996       0.13735870      -8.76012173       0.85400301
 C              8.93558000      11.43467000      10.47645000       0.00026854       0.13838064      -0.28161532      -8.75717121       0.85381398
 C              7.80046000      10.80795000      11.12755000      -0.32791043       0.02003047      -0.06933884      -8.76087109       0.85403666
 C              6.56458000      10.73974000      10.47227000       0.25414450       0.01816131       0.15822354      -8.76012345       0.85393602
 C              8.79593000      11.96360000       9.18735000       0.04833992      -0.04371319       0.28092821      -8.75856869       0.85397361
 C             10.98991000      11.03123000       8.53658000      -0.17540289       0.18954770      -0.06048452      -8.75729857       0.85394506
 C             11.13547000      10.48148000       9.87290000      -0.15745700       0.03412820       0.20219387      -8.76026109       0.85398101
 C             10.12566000      10.67705000      10.82237000       0.26107641      -0.02470869      -0.13039476      -8.76234664       0.85408165
 C              9.84135000      11.75643000       8.20170000       0.26314093      -0.03660622       0.03250959      -8.75673110       0.85408118
