      60
 Properties=species:S:1:pos:R:3:forces:R:3:local_energy:R:1:hirshfeld_v:R:1 Lattice="200.0000000000      0.0000000000    0.0000000000    0.0000000000  200.0000000000    0.0000000000    0.0000000000    0.0000000000  200.0000000000" energy=-525.900447 virial="1.87604668           -0.29654412      0.02523265     -0.29654412      1.65077359      0.08621061      0.02523265      0.08621061      1.62106281" stress="-0.00000023           0.00000004     -0.00000000      0.00000004     -0.00000021     -0.00000001     -0.00000000     -0.00000001     -0.00000020" volume=8000000.000000
 C              7.28766000       6.32384000      11.08071000       0.10286430      -0.31784665      -0.17922020      -8.76576151       0.85398012
 C              8.17010000       7.19820000      11.83431000       0.26252663      -0.06935582       0.09452945      -8.76688883       0.85395875
 C              7.82312000       5.40379000      10.17174000      -0.19466973       0.10784254       0.25494455      -8.76456743       0.85401314
 C              9.55575000       7.11947000      11.65181000      -0.38871049       0.03292960       0.25337303      -8.76177804       0.85399506
 C             10.34747000       8.33446000      11.57854000      -0.01901456       0.15437630       0.12147327      -8.76583407       0.85408954
 C              7.52513000       8.49407000      11.94969000       0.25048411       0.30504263       0.13351808      -8.76211652       0.85396964
 C              8.28815000       9.66528000      11.88021000      -0.06506698      -0.21268250      -0.00014255      -8.76409728       0.85397520
 C              9.72519000       9.58294000      11.69074000       0.22685965      -0.32023145      -0.04483981      -8.76196218       0.85408450
 C              6.04281000       5.93248000       8.54449000       0.16460202      -0.17625055       0.00123548      -8.76326879       0.85394107
 C              5.48781000       6.88671000       9.48799000      -0.01781516       0.04775903       0.14714464      -8.76638757       0.85397162
 C              7.19130000       5.20716000       8.87936000      -0.29408464      -0.00603325      -0.08330637      -8.76273725       0.85407920
 C              6.09683000       7.07853000      10.73395000      -0.21577561      -0.05552096      -0.25018851      -8.76534226       0.85384843
 C              6.24545000       8.42128000      11.26831000      -0.25795750      -0.10277160      -0.09281202      -8.76629884       0.85404744
 C              5.00000000       8.02796000       8.73412000      -0.13087653       0.26801125       0.06568460      -8.76381468       0.85401308
 C              5.14341000       9.32046000       9.25092000      -0.18112788      -0.25038298      -0.01994944      -8.76194713       0.85408342
 C              5.77472000       9.52231000      10.54328000       0.00433123      -0.18085399       0.18790502      -8.76568442       0.85401938
 C              8.09699000       5.52910000       6.60450000      -0.02584143      -0.11135423       0.24227747      -8.76324141       0.85381601
 C              6.90696000       6.28678000       6.25862000      -0.24096008      -0.02236903       0.21559223      -8.76821219       0.85407565
 C              8.23661000       5.00000000       7.89356000      -0.05825900       0.15584612      -0.30479416      -8.76455344       0.85397476
 C              5.89729000       6.48231000       7.20819000       0.12249499      -0.04522159      -0.22874519      -8.76624350       0.85397937
 C              5.25014000       7.77861000       7.32528000       0.02940569       0.19530126      -0.16979025      -8.76789946       0.85397970
 C              7.30750000       7.38081000       5.39018000      -0.14511234       0.06177122      -0.04728384      -8.76191927       0.85407898
 C              6.68539000       8.62933000       5.50232000       0.05565537      -0.28107577      -0.08456996      -8.76590411       0.85409230
 C              5.63711000       8.83263000       6.48814000      -0.09939851      -0.28747715       0.12113493      -8.76590660       0.85402605
 C             10.61144000       5.67417000       7.94558000      -0.21254838      -0.22234151       0.09193857      -8.76625317       0.85404640
 C             10.46803000       6.22407000       6.60851000      -0.23874487      -0.08014842      -0.09246682      -8.76597137       0.85392756
 C              9.51581000       5.07072000       8.57587000       0.42939254       0.06315494       0.00824240      -8.76616775       0.85400528
 C              9.23212000       6.15584000       5.95340000       0.33026627      -0.04329995       0.05785222      -8.76673446       0.85403410
 C              8.74452000       7.29848000       5.20075000       0.18058411       0.29703187      -0.07247457      -8.76411795       0.85397518
 C             11.25804000       7.44140000       6.53754000       0.00711467       0.25027387      -0.09345928      -8.76575369       0.85401177
 C             10.78743000       8.54244000       5.81255000       0.17098217      -0.18875107       0.10020181      -8.76626597       0.85404610
 C              9.50772000       8.46964000       5.13124000      -0.13090629      -0.18093151      -0.05399226      -8.76218417       0.85397400
 C             10.11096000       6.16490000      10.70855000      -0.14229715      -0.36902964      -0.15933901      -8.76764003       0.85416549
 C             11.24922000       6.78972000      10.05652000       0.08550723       0.33377457      -0.26935855      -8.76334049       0.85395653
 C              9.26140000       5.31910000       9.98455000       0.20306353       0.08189969       0.12085201      -8.76680437       0.85396393
 C             11.49086000       6.55105000       8.69835000       0.05740987       0.01245619       0.28505053      -8.76251961       0.85409401
 C             11.88928000       7.64325000       7.82994000       0.07702914       0.04695827       0.04468580      -8.76197275       0.85407944
 C             11.39574000       8.13108000      10.59273000       0.21010368       0.27538292      -0.01758739      -8.76598909       0.85402301
 C             11.78269000       9.18516000       9.75574000       0.07680169      -0.14852382       0.34264806      -8.76792094       0.85397913
 C             12.03279000       8.93571000       8.34690000       0.18708115      -0.13267595      -0.11608690      -8.76381995       0.85401390
 C              9.74533000      10.63990000       6.00027000      -0.10511802       0.22508084       0.14253791      -8.76580281       0.85398045
 C             10.93620000       9.88519000       6.34702000       0.16021430       4.32183856       0.24757084      -8.76538751       0.85384544
 C             11.54502000      10.07699000       7.59304000       0.01300278       0.09255629      -0.37370938      -8.76640735       0.85397820
 C              9.20974000      11.55982000       6.90925000      -0.04298079      -0.10797802      -0.32626581      -8.76446647       0.85401128
 C              6.92189000      10.79886000       6.37217000       0.12975567       0.17738209       0.10709286      -8.76759485       0.85416025
 C              7.47719000       9.84434000       5.42897000       0.25450967       0.05915867      -0.05214897      -8.76176670       0.85399212
 C              8.86285000       9.76560000       5.24659000      -0.26182224       0.16398234       0.00947148      -8.76690930       0.85396489
 C              7.77145000      11.64456000       7.09627000      -0.19589645      -0.12662347      -0.42353436      -8.76685859       0.85396044
 C              6.42112000      11.28960000       9.13514000       0.14659048       0.28165480      -0.06657218      -8.76618931       0.85404620
 C              5.54173000      10.41268000       8.38235000      -0.07242399       0.11180868      -0.28190225      -8.76264862       0.85409674
 C              5.78360000      10.17405000       7.02416000      -0.15115362       0.08368753       0.23528655      -8.76344450       0.85396315
 C              7.51683000      11.89289000       8.50490000      -0.33141321      -0.00823920       0.16571921      -8.76608585       0.85400301
 C              8.93558000      11.43467000      10.47645000       0.12126282       0.13416369      -0.29319831      -8.76316913       0.85381398
 C              7.80046000      10.80795000      11.12755000      -0.37275239       0.03902068      -0.04151923      -8.76681288       0.85403666
 C              6.56458000      10.73974000      10.47227000       0.23840608      -2.11349318       0.13437773      -8.76609309       0.85393602
 C              8.79593000      11.96360000       9.18735000       0.04967670       0.05599965       0.40689874      -8.76452313       0.85397361
 C             10.98991000      11.03123000       8.53658000      -0.09587561       0.31280760       0.02551544      -8.76327419       0.85394506
 C             11.13547000      10.48148000       9.87290000      -0.07054303       0.75426284       0.25388723      -8.76622908       0.85398101
 C             10.12566000      10.67705000      10.82237000       0.25314318      -0.00672984      -0.11346697      -8.76829474       0.85408165
 C              9.84135000      11.75643000       8.20170000       0.20804201       0.08113756      -0.15744375      -8.76266618       0.85408118
