     125
 Properties=species:S:1:pos:R:3:forces:R:3:local_energy:R:1:hirshfeld_v:R:1 Lattice="9.1075620000        0.0000000000    0.0000000000    0.0000000000    9.1075620000    0.0000000000    0.0000000000    0.0000000000    9.1075620000" energy=-970.976460 virial="188.19717509         17.83754882      2.58424494     17.83754882    203.98105080    -30.09435750      2.58424494    -30.09435750    185.86583352" stress="-0.24911891          -0.02361178     -0.00342080     -0.02361178     -0.27001222      0.03983627     -0.00342080      0.03983627     -0.24603288" volume=755.451189
 C              8.35934846       3.10682619       2.98379214      -4.59430784       1.35680070      -2.29923101      -7.99953763       0.91770678
 C              5.91582600       0.89333343       3.67235115      -3.90311403       4.05002663      -5.61661703      -7.95325675       0.92138203
 C              5.96669174       4.33999920       0.28897383       4.10415557       3.48284872       3.95891847      -8.52169588       0.91693579
 C              6.75613521       8.63649157       1.53293019      -0.47461045      -2.36142923       3.73772105      -8.69312797       0.91447894
 C              5.84463219       6.01508932       0.81335993      -4.82163959      -5.03464164       2.30345347      -6.68661338       0.91954298
 C              8.63925116       0.96398990       5.59148751       3.02404092       2.90734894       5.61179288      -8.14788736       0.91705437
 C              5.34793308       6.63465855       2.07477548      -1.78807638       2.50383612       0.02766958      -7.99262095       0.91808636
 C              2.65213116       1.97904590       3.77758903      -1.11975586       4.67031148       0.26191047      -8.33600257       0.91008404
 C              6.41502969       0.50814731       4.91399418       2.45235271      -2.99557638       0.15715934      -6.89849138       0.90956352
 C              4.18430542       0.13081191       0.53060656      -7.36416656      -2.73296559       5.08790120      -6.41195387       0.90775100
 C              1.20501242       7.52252745       7.85611923       0.95526853       9.56393249       3.57071794      -7.75904889       0.91359786
 C              2.38661841       0.00142989       4.84370202       5.39267930      -3.49079744      -0.26834177      -6.98686265       0.91719801
 C              6.86508898       6.60882950       0.31249867      11.21223373       4.58757808      -1.20405708      -7.03615355       0.92542595
 C              3.19257389       2.97317272       0.49341128      -2.65149771       0.41146847      -3.12172830      -6.27741769       0.91088222
 C              7.70704665       3.94912996       0.59706444      -4.23283230       1.08573583      -2.44394451      -7.56924251       0.91546613
 C              8.07495573       8.07008318       3.74463787       0.16554270       2.13392060      -0.80902053      -7.31727865       0.91900842
 C              2.24602497       1.28535023       5.23178435      -0.01215272       6.80645176      -0.78871585      -8.20068364       0.91412362
 C              6.52342790       7.75507083       6.75200949       3.61022507      -0.17166738      -0.82074789      -8.38231889       0.91749655
 C              2.11896537       8.02249617       5.81112547       0.40307917       2.83225254       3.95614284      -7.65932817       0.91375505
 C              3.30383187       7.51181695       3.36561757      -2.79279987      -1.26023263      -2.39680521      -6.69961546       0.91395174
 C              6.90350467       5.31816046       6.46059483       2.74527441       2.98324245      -0.72072686      -8.80081658       0.91459040
 C              6.04355045       5.39654014       3.94453975      -2.32750903      -0.97097472      -4.88305973      -8.26836516       0.91608046
 C              6.07887869       0.00795090       6.24465453      -1.51955955      -0.35005101      -1.89111486      -8.07422396       0.91519879
 C              3.89412939       4.19728370       0.85005430       3.99966057      -1.89282582       4.54059409      -8.05346524       0.91670630
 C              9.05672359       7.43020409       8.49744642      -9.52612110      -0.02753500      -0.52050773      -8.04061214       0.91632139
 C              5.19159267       3.42395150       1.18924723      -3.65391242       1.24411548      -7.55246322      -7.92480962       0.91489599
 C              7.26396376       2.29495990       7.54791022      -6.58141880       1.44327909      -3.38526207      -8.19652704       0.90784990
 C              8.91894439       8.75143811       6.25655811      -5.22997475       0.53331471       0.42040969      -8.56950206       0.90824935
 C              0.16529314       0.80755841       2.42479731       2.78530598      -3.14956144       9.32900364      -6.62373035       0.91635446
 C              6.94731205       0.76128289       2.30708207       1.14651102      -0.48207384       4.90208910      -8.62973312       0.91818049
 C              1.77676695       5.63142417       8.32613318       3.87776057       0.02439257      -1.38166685      -7.21067058       0.90725357
 C              3.86072285       8.54635403       4.19283921      -0.91904260       0.15594326      -1.39493663      -8.73140569       0.90733816
 C              3.51536410       8.04354375       6.39073072      -1.67124193      -2.02842481       1.83250312      -7.59806410       0.91708477
 C              5.47101268       7.02361520       7.62841196       2.65747533       1.25249637       1.62759076      -8.68349659       0.91610341
 C              8.41016865       2.14938463       6.70108000       1.15611781      -1.46693377       1.57662467      -7.26752253       0.91369369
 C              6.27904468       6.66750953       4.54184099       1.35295994       4.40572500       2.96149333      -8.10018687       0.91747453
 C              0.25349988       5.27834220       6.12123796       3.08186064      -2.47063981       9.49489291      -7.00735459       0.92445145
 C              1.33707207       8.72950710       2.37445070      -1.20004032       2.51359634      -1.42895265      -7.05835365       0.90813773
 C              5.09368638       0.88935343       7.48541413       1.17828201      -1.38791897       4.12376204      -7.14912728       0.91065999
 C              8.97522002       3.01991273       5.77250030       7.30873449       3.04057369      -1.56578692      -7.87611049       0.92008991
 C              7.63624447       7.49841973       1.27248124       0.13998253      -0.17952609       3.67837414      -8.09772213       0.92818553
 C              7.67297526       1.27919351       4.60898193      -1.26534246      -3.71562404      -3.21437704      -8.93494926       0.91388083
 C              6.32874465       8.78495394       0.18031151      -6.94657750       1.08905011       1.49802687      -8.37482104       0.91587786
 C              1.51064399       4.52405392       8.80993598      -0.58696104      -6.10148016       3.54598391      -6.62855177       0.91602531
 C              4.98173623       0.02755948       3.08614292      -6.42119629      -0.52618627      -0.34431337      -8.23874540       0.91515887
 C              2.11620578       7.64741945       0.08454550      -1.56388150       4.99883928      -3.20840952      -8.15212764       0.90608786
 C              0.49068812       2.22403021       2.50783095      -5.64277729       6.49625302       4.34374362      -8.57335823       0.91752481
 C              8.04015573       0.56145387       3.27396817       3.56841611      -2.71784342      -1.41667311      -8.78732264       0.91427825
 C              1.57107266       7.65272005       3.24220100       4.07373466       4.14035187       2.43250557      -8.54075279       0.90789386
 C              3.12226351       1.75595617       2.36408630       0.11994723      -1.44761388       3.55673929      -7.42753589       0.90960027
 C              5.96609064       2.49327707       3.59044684      -8.38371272      -1.77131306      -1.84361930      -8.49663925       0.91211446
 C              1.11819914       3.20565235       1.64755797       4.42697407      -1.77632994      -1.80584214      -8.42421279       0.91623020
 C              1.09592204       5.43527460       2.13277244       2.80041259       0.55073391       0.74937088      -7.78517119       0.90600489
 C              7.21359894       6.68913088       5.68393837      -4.41735561      -2.16214988       3.42278043      -8.29138991       0.91437309
 C              3.16535139       4.56323465       3.26716482      -1.10603458      -2.12259031      -0.82385121      -7.10303555       0.92426688
 C              7.25825332       2.54969841       3.93933022      12.95012726      -0.22238671       6.15746931      -6.92921807       0.92091154
 C              6.66485012       4.13365827       5.62837313      -1.15013702       0.81626620       6.27930366      -8.01321185       0.91294311
 C              5.88403151       5.61381925       7.50442161       2.38792152       6.30979424      -5.45609399      -7.17480930       0.91331743
 C              1.02999240       6.29921793       7.43802749       0.64359096      -5.12308173      -6.71350646      -6.47118377       0.91777022
 C              3.79428319       3.70562107       6.11882445      -8.73896110       5.24646219       0.98042622      -6.32863405       0.91304506
 C              5.92161841       8.03262378       2.53539954      -3.43712798      -0.56792569       3.58055850      -8.44645820       0.91889163
 C              2.67925348       3.67378104       8.37871114      -1.71588137      -1.43435974      -3.20348510      -8.92826435       0.91590165
 C              5.85097106       7.47756341       9.01444629      -3.94516604      -0.97062068      -5.82055834      -8.07981432       0.91876870
 C              5.92308473       3.46386995       2.31613498       3.57629324       0.12609763       8.81580618      -7.04162834       0.91835521
 C              8.50695472       6.72995097       5.20322303       3.48755947       3.26591527      -1.02270865      -7.92701482       0.91264899
 C              4.01168069       0.75493492       2.35258345       1.76880515      -1.91200181      -8.44860777      -6.38560727       0.90816303
 C              1.64661078       0.95836143       7.34550376       1.41980628       2.88490699       1.44085544      -7.66693611       0.90584223
 C              4.84733594       2.96443857       6.12668428       3.23389595     -12.84251683       3.28245218      -7.17444830       0.91630374
 C              3.44345079       8.21163291       8.86840653       1.89237011       3.19925432       3.72688433      -6.52523165       0.91738647
 C              8.23754392       5.16237562       7.16385344       0.58623513       1.25021843      -0.05397402      -6.71777329       0.91620764
 C              2.42198307       3.36186525       6.77456892       2.58978206       1.80602796      -0.02649098      -8.27470610       0.90854113
 C              0.11127619       5.58427432       4.77957568       3.18876035       3.01805988      -1.38216701      -7.28539236       0.91581915
 C              9.06275279       0.76437946       1.17830905       1.93753072       2.15047548      -7.82910972      -6.42584618       0.92068389
 C              9.10299911       7.68381326       0.87990889      -2.02182893      -4.24654429      -3.22596601      -8.08778108       0.91253125
 C              5.54187862       4.52294280       8.06053846      -5.88159025      -8.08453392       1.36442917      -6.96558112       0.91120540
 C              3.68438224       3.22897682       3.84146036      -1.66097016      -2.74651856       0.40010431      -7.56891677       0.90552194
 C              8.23352749       6.23672184       8.39420310      -1.90496936      -4.30157838      -1.70171882      -7.51551817       0.92451079
 C              3.61444527       5.24812331       2.01487505       3.39225020      -1.79221000       3.86308272      -7.07792770       0.92592906
 C              4.21163722       1.60290359       6.78384042      -3.07702294       3.90097920      -1.80542401      -7.78577493       0.89853181
 C              4.17011584       4.81494945       5.37243243      -2.23051431       7.78643999       2.36992840      -8.53469633       0.91659093
 C              7.32645985       3.37193822       1.91190495       2.83885200      -1.38279282      -0.70448313      -8.39035591       0.91381689
 C              7.33047629       5.53033934       3.30542569      -0.20135456      -3.36158877      -0.15137278      -7.37552855       0.91370517
 C              7.73662801       6.47596839       2.42258417       6.90044915       1.09304389      -1.52666636      -7.14772782       0.91687302
 C              8.50159036       5.28158449       0.26305371       1.12844398      -3.60105824       7.13681201      -6.98905234       0.92297533
 C              0.79296810       1.66010819       5.18723926      -0.82005437       2.92807399      -5.49555287      -7.97092029       0.91886322
 C              7.93647525       2.49460677       8.82323302       1.44259050       5.14429117      -2.41573916      -7.51016096       0.91708815
 C              6.50414719       1.02782480       7.46172536       3.32734574      -0.30494807      -0.79212534      -7.92856095       0.91635408
 C              5.18595509       0.84861530       0.01607485      -0.48190007       2.02100272      -1.00555712      -7.94550342       0.91180069
 C              3.80803561       6.68118908       7.12702246       1.87905313       3.61128421       3.73573875      -7.81777841       0.91411437
 C              1.36233645       1.06407290       0.67845872       0.48050608      -1.43784920      -1.51896728      -8.44116833       0.90869583
 C              4.35111953       6.14550050       6.03891471       1.29364992      -7.75344565      -3.10042533      -6.93115925       0.91334506
 C              1.25800022       8.35427555       0.99684088       2.59515215       1.54815873       1.86096071      -7.56288792       0.90911090
 C              2.71035581       1.97185093       6.49862800      -0.98280127      -9.35390007       3.26551843      -8.40382577       0.90935708
 C              1.21259902       4.02725463       6.07770381      -4.30116544      -1.73902233       0.92396959      -7.00208616       0.91823402
 C              3.38299480       5.90325757       8.35329193      -3.51895615       1.12266830      -0.81954829      -9.43730185       0.90758344
 C              1.11688765       1.58986156       8.54461449      -0.05854773       0.12039764      -7.14695502      -6.66706307       0.90742026
 C              1.22007633       2.27733677       3.65607594       1.92500832      -1.62722881       7.02446135      -5.87845340       0.91371878
 C              0.41518643       3.90892007       0.46747294       4.59014955      -2.67163859      -6.00869035      -7.83221090       0.92589322
 C              1.28602418       8.25778093       4.62422799       2.33786473      -2.84778781      -5.39077976      -8.17228993       0.91238474
 C              7.94399809       3.51703989       4.79573249      -2.93352078       4.70513336       4.17408345      -8.18122834       0.91353868
 C              5.21852374       6.94733937       5.36344326      -2.43461595      -2.01552441      -0.93700002      -6.82440125       0.91660075
 C              6.65334727       8.00104786       4.01803777       1.24548891      -1.58884896      -3.67633252      -8.14736174       0.92282264
 C              2.11505823       4.30851436       2.13534077      -6.54445711       4.15781290       2.15356279      -7.85944381       0.92277129
 C              0.22900054       2.87700598       8.24908321       0.76643848      -3.54877997       2.49023870      -7.79768027       0.92137732
 C              9.06153238       8.06204121       4.97881270      -4.52796434      -3.27878378       1.19198154      -8.20042593       0.91012033
 C              1.69379706       5.65246263       4.36359689      -2.14170585       1.63483332       0.53139954      -7.45050000       0.91232518
 C              8.34960337       4.78894736       4.01775544      -0.56095306      -4.58594150      -2.37613855      -8.10433865       0.90846008
 C              9.07461995       6.02763954       1.54838572      -2.64252707       0.70800060      -2.86094759      -8.01517558       0.91625455
 C              5.48737897       2.02758921       0.81266776       2.90646265       0.36189257      -0.30090346      -7.47242559       0.90984105
 C              5.47575772       4.38452607       4.81812799       0.46125119      -0.21902337      -1.18867545      -9.08086736       0.91739957
 C              7.98399851       1.25607852       0.49578835      -3.14473716       3.54933435      -5.93502003      -8.60397516       0.91178474
 C              1.28534112       6.33036580       3.15444053       1.18605048      -3.72091749       1.77429299      -7.33869106       0.91089312
 C              3.76680568       6.90565406       1.96595833      -1.11053639      -4.00019900      -1.66281792      -7.77100350       0.91595627
 C              6.01254831       3.39779459       7.04350612       2.60160510      -1.53154586      -3.21528685      -8.89089304       0.90227168
 C              4.90995953       2.91576776       4.61083077       2.69181273       4.04387616      -3.58646519      -8.96237140       0.90776685
 C              4.69083159       8.17017529       5.44941865      -5.25483013       5.99849220       1.39987799      -7.81578084       0.91846891
 C              5.01027022       5.59038549       2.96976649      -1.18386934      -1.32049074      -3.60163126      -6.25120914       0.92364771
 C              3.28068955       6.88050808       0.37709860       2.17722653       1.36926859       1.34519055      -6.98162774       0.91562991
 C              2.29620764       2.19486780       1.29786402      -1.29339915      -1.15414297      -1.52585264      -8.94447322       0.91096723
 C              7.86404281       8.19661454       7.50795535       4.37141599       3.67440787       0.75019120      -8.12423873       0.91320667
 C              7.28883651       0.24392783       8.44931296       4.36531816       0.37110460      -2.18496654      -8.39619163       0.90928889
 C              3.00047719       5.42967345       4.57430944       1.11949478      -1.98719062      -3.07318923      -7.19597123       0.91017342
 C              6.93939758       1.91383576       1.38696329      -1.99844773      -4.65540433       0.05013169      -8.62346364       0.92330366
 C              1.09663243       8.80526380       6.89768494       6.95316603      -3.73709278       1.44314952      -9.21745294       0.90622559
 C              3.90606030       4.57209631       8.50600753       2.23941357       1.27593646      -0.18006336      -8.73930754       0.90958477
