       3
 Properties=species:S:1:pos:R:3:forces:R:3:local_energy:R:1:hirshfeld_v:R:1 Lattice="20.0000000000       0.0000000000    0.0000000000    0.0000000000   20.0000000000    0.0000000000    0.0000000000    0.0000000000   20.0000000000" energy=-2.542674 virial="-19.17285499          0.00000000     -0.00000000      0.00000000      0.00000000      0.00000000     -0.00000000      0.00000000      0.00000000" stress="0.00239661           -0.00000000      0.00000000     -0.00000000     -0.00000000     -0.00000000      0.00000000     -0.00000000     -0.00000000" volume=8000.000000
 C             19.99900000       0.00000000       0.00000000       3.54271743       0.00000000       0.00000000      -1.09679487       1.01620558
 C              2.70000000       0.00000000       0.00000000       0.00875180      -0.00000000      -0.00000000      -0.34760438       0.97506763
 C              5.40000000       0.00000000       0.00000000      -3.55146930       0.00000000       0.00000000      -1.09827512       1.01613734
