    1000
 Properties=species:S:1:pos:R:3:forces:R:3:local_energy:R:1:hirshfeld_v:R:1 Lattice="18.2151240000       0.0000000000    0.0000000000    0.0000000000   18.2151240000    0.0000000000    0.0000000000    0.0000000000   18.2151240000" energy=-7554.391444 virial="1505.55503226       142.68892887     20.65835353    142.68892887   1631.84743947   -240.75296209     20.65835353   -240.75296209   1486.93500062" stress="-0.24911521          -0.02360989     -0.00341821     -0.02360989     -0.27001206      0.03983596     -0.00341821      0.03983596     -0.24603426" volume=6043.609514
 C              8.36034846       3.10682619       2.98379214      -4.62618956       1.36495134      -2.30042797      -7.77913840       0.91772446
 C              5.91582600       0.89333343       3.67235115      -3.90242897       4.05014770      -5.61710716      -7.73378721       0.92138315
 C              5.96669174       4.33999920       0.28897383       4.10433181       3.48242157       3.95924209      -8.30829262       0.91693707
 C              6.75613521       8.63649157       1.53293019      -0.47460942      -2.36142276       3.73772391      -8.47430318       0.91447894
 C              5.84463219       6.01508932       0.81335993      -4.82162726      -5.03452572       2.30348514      -6.47209533       0.91954299
 C              8.63925116       0.96398990       5.59148751       3.02396745       2.90730194       5.61173722      -7.92984829       0.91705508
 C              5.34793308       6.63465855       2.07477548      -1.78802247       2.50382545       0.02768467      -7.77312746       0.91808636
 C              2.65213116       1.97904590       3.77758903      -1.11977641       4.67036126       0.26190948      -8.12060981       0.91008403
 C              6.41502969       0.50814731       4.91399418       2.45240144      -2.99564016       0.15720241      -6.69046016       0.90956393
 C              4.18430542       0.13081191       0.53060656      -7.36418408      -2.73298189       5.08788143      -6.20726184       0.90775100
 C              1.20501242       7.52252745       7.85611923       0.95526853       9.56393251       3.57071793      -7.54460068       0.91359786
 C              2.38661841       0.00142989       4.84370202       5.39267577      -3.49079604      -0.26833986      -6.78453903       0.91719801
 C              6.86508898       6.60882950       0.31249867      11.21221977       4.58758095      -1.20403290      -6.82634672       0.92542595
 C              3.19257389       2.97317272       0.49341128      -2.65145039       0.41144332      -3.12169356      -6.07604445       0.91088222
 C              7.70704665       3.94912996       0.59706444      -4.23325290       1.08602141      -2.44442540      -7.35267067       0.91546904
 C              8.07495573       8.07008318       3.74463787       0.16552675       2.13400539      -0.80899067      -7.10155730       0.91900842
 C              2.24602497       1.28535023       5.23178435      -0.01216297       6.80644341      -0.78871496      -7.98179651       0.91412362
 C              6.52342790       7.75507083       6.75200949       3.61022487      -0.17167139      -0.82074945      -8.16868959       0.91749655
 C              2.11896537       8.02249617       5.81112547       0.40307918       2.83225254       3.95614285      -7.45621237       0.91375505
 C              3.30383187       7.51181695       3.36561757      -2.79280072      -1.26023464      -2.39680356      -6.49533895       0.91395174
 C              6.90350467       5.31816046       6.46059483       2.74515675       2.98320638      -0.72056483      -8.59155440       0.91459044
 C              6.04355045       5.39654014       3.94453975      -2.32748245      -0.97086848      -4.88288970      -8.03344821       0.91608079
 C              6.07887869       0.00795090       6.24465453      -1.51954391      -0.35008926      -1.89098307      -7.84883570       0.91519879
 C              3.89412939       4.19728370       0.85005430       3.99991595      -1.89291398       4.54077759      -7.84529935       0.91670630
 C              9.05672359       7.43020409       8.49744642      -9.52612069      -0.02753562      -0.52050828      -7.83792307       0.91632139
 C              5.19159267       3.42395150       1.18924723      -3.65329894       1.24407858      -7.55288248      -7.70085609       0.91489762
 C              7.26396376       2.29495990       7.54791022      -6.58143437       1.44331243      -3.38524205      -7.97263746       0.90784990
 C              8.91894439       8.75143811       6.25655811      -5.22998281       0.53331985       0.42041282      -8.35541536       0.90824935
 C              0.16529314       0.80755841       2.42479731       2.78530599      -3.14956143       9.32900364      -6.39691045       0.91635446
 C              6.94731205       0.76128289       2.30708207       1.14577254      -0.48253295       4.90223433      -8.42009422       0.91818056
 C              1.77676695       5.63142417       8.32613318       3.87776058       0.02439257      -1.38166684      -7.01542047       0.90725357
 C              3.86072285       8.54635403       4.19283921      -0.91904183       0.15594291      -1.39493582      -8.52599935       0.90733816
 C              3.51536410       8.04354375       6.39073072      -1.67124181      -2.02842492       1.83250303      -7.39396581       0.91708477
 C              5.47101268       7.02361520       7.62841196       2.65747481       1.25249245       1.62758449      -8.46444422       0.91610341
 C              8.41016865       2.14938463       6.70108000       1.15601597      -1.46695190       1.57679369      -7.05342908       0.91369397
 C              6.27904468       6.66750953       4.54184099       1.35306940       4.40564767       2.96144589      -7.87451818       0.91747456
 C              0.25349988       5.27834220       6.12123796       3.08186065      -2.47063980       9.49489292      -6.78493301       0.92445145
 C              1.33707207       8.72950710       2.37445070      -1.20004032       2.51359634      -1.42895265      -6.83886099       0.90813773
 C              5.09368638       0.88935343       7.48541413       1.17828710      -1.38792486       4.12376184      -6.93052946       0.91065999
 C              8.97522002       3.01991273       5.77250030       7.30785273       3.04066864      -1.56572050      -7.66980087       0.92009275
 C              7.63624447       7.49841973       1.27248124       0.14001722      -0.17953648       3.67838344      -7.86465090       0.92818553
 C              7.67297526       1.27919351       4.60898193      -1.26597118      -3.71518107      -3.21376971      -8.71822471       0.91388376
 C              6.32874465       8.78495394       0.18031151      -6.94657805       1.08905115       1.49802635      -8.16649397       0.91587786
 C              1.51064399       4.52405392       8.80993598      -0.58696103      -6.10148016       3.54598391      -6.42275382       0.91602531
 C              4.98173623       0.02755948       3.08614292      -6.42123421      -0.52607064      -0.34434885      -8.00971597       0.91515887
 C              2.11620578       7.64741945       0.08454550      -1.56388142       4.99883925      -3.20840949      -7.94437353       0.90608786
 C              0.49068812       2.22403021       2.50783095      -5.64277730       6.49625302       4.34374363      -8.34997988       0.91752481
 C              8.04015573       0.56145387       3.27396817       3.56833304      -2.71704993      -1.41686981      -8.58359359       0.91427699
 C              1.57107266       7.65272005       3.24220100       4.07373517       4.14035168       2.43250553      -8.31996075       0.90789386
 C              3.12226351       1.75595617       2.36408630       0.12005599      -1.44758899       3.55673194      -7.20951000       0.90960027
 C              5.96609064       2.49327707       3.59044684      -8.37681245      -1.76993966      -1.84503709      -8.27109353       0.91211771
 C              1.11819914       3.20565235       1.64755797       4.42697528      -1.77632988      -1.80584215      -8.21175892       0.91623020
 C              1.09592204       5.43527460       2.13277244       2.80041174       0.55073386       0.74937066      -7.57410140       0.90600489
 C              7.21359894       6.68913088       5.68393837      -4.41741356      -2.16213047       3.42275054      -8.08387322       0.91437309
 C              3.16535139       4.56323465       3.26716482      -1.10605071      -2.12263688      -0.82386580      -6.89367819       0.92426688
 C              7.25825332       2.54969841       3.93933022      12.95341593      -0.22303741       6.15979689      -6.71143477       0.92091851
 C              6.66485012       4.13365827       5.62837313      -1.15092279       0.81648941       6.28011024      -7.81693032       0.91294442
 C              5.88403151       5.61381925       7.50442161       2.38792786       6.30978403      -5.45608947      -6.96439277       0.91331743
 C              1.02999240       6.29921793       7.43802749       0.64359094      -5.12308173      -6.71350645      -6.26465833       0.91777022
 C              3.79428319       3.70562107       6.11882445      -8.73893111       5.24645553       0.98046277      -6.13722739       0.91304506
 C              5.92161841       8.03262378       2.53539954      -3.43710393      -0.56793153       3.58054591      -8.23288188       0.91889163
 C              2.67925348       3.67378104       8.37871114      -1.71588127      -1.43435977      -3.20348526      -8.71906461       0.91590165
 C              5.85097106       7.47756341       9.01444629      -3.94516606      -0.97062055      -5.82055837      -7.86837560       0.91876870
 C              5.92308473       3.46386995       2.31613498       3.57819939       0.12640774       8.81654499      -6.82607302       0.91836075
 C              8.50695472       6.72995097       5.20322303       3.48757957       3.26590661      -1.02270690      -7.71088398       0.91264897
 C              4.01168069       0.75493492       2.35258345       1.76886639      -1.91191676      -8.44850493      -6.17195739       0.90816303
 C              1.64661078       0.95836143       7.34550376       1.41980628       2.88490699       1.44085545      -7.45705620       0.90584223
 C              4.84733594       2.96443857       6.12668428       3.23400922     -12.84256096       3.28233474      -6.96520262       0.91630374
 C              3.44345079       8.21163291       8.86840653       1.89237011       3.19925432       3.72688434      -6.31529684       0.91738647
 C              8.23754392       5.16237562       7.16385344       0.58621877       1.25028236      -0.05390952      -6.49581687       0.91620764
 C              2.42198307       3.36186525       6.77456892       2.58977991       1.80602857      -0.02648970      -8.05560691       0.90854113
 C              0.11127619       5.58427432       4.77957568       3.18876035       3.01805989      -1.38216701      -7.05575110       0.91581915
 C              9.06275279       0.76437946       1.17830905       1.93757462       2.15104422      -7.82885266      -6.21176070       0.92068221
 C              9.10299911       7.68381326       0.87990889      -2.02188706      -4.24652741      -3.22597559      -7.87564586       0.91253125
 C              5.54187862       4.52294280       8.06053846      -5.88158602      -8.08452681       1.36442166      -6.74174473       0.91120540
 C              3.68438224       3.22897682       3.84146036      -1.66122208      -2.74649896       0.40002025      -7.36615862       0.90552194
 C              8.23352749       6.23672184       8.39420310      -1.90496666      -4.30157875      -1.70171910      -7.29369075       0.92451079
 C              3.61444527       5.24812331       2.01487505       3.39226555      -1.79226058       3.86307253      -6.85582977       0.92592906
 C              4.21163722       1.60290359       6.78384042      -3.07701101       3.90100006      -1.80543959      -7.58164339       0.89853181
 C              4.17011584       4.81494945       5.37243243      -2.23056270       7.78650975       2.36995505      -8.30735076       0.91659093
 C              7.32645985       3.37193822       1.91190495       2.84701225      -1.38282872      -0.70209516      -8.18985174       0.91382417
 C              7.33047629       5.53033934       3.30542569      -0.20143376      -3.36240261      -0.15146108      -7.14528304       0.91370431
 C              7.73662801       6.47596839       2.42258417       6.90052694       1.09284910      -1.52667364      -6.92486595       0.91687302
 C              8.50159036       5.28158449       0.26305371       1.12832522      -3.60136868       7.13692843      -6.76575999       0.92297585
 C              0.79296810       1.66010819       5.18723926      -0.82005442       2.92807396      -5.49555287      -7.77451753       0.91886322
 C              7.93647525       2.49460677       8.82323302       1.44258476       5.14429035      -2.41572510      -7.29937286       0.91708815
 C              6.50414719       1.02782480       7.46172536       3.32734703      -0.30496240      -0.79208716      -7.71402901       0.91635407
 C              5.18595509       0.84861530       0.01607485      -0.48195076       2.02087922      -1.00560196      -7.72229787       0.91180069
 C              3.80803561       6.68118908       7.12702246       1.87905657       3.61128064       3.73573565      -7.59870287       0.91411437
 C              1.36233645       1.06407290       0.67845872       0.48050538      -1.43784937      -1.51896722      -8.23288144       0.90869583
 C              4.35111953       6.14550050       6.03891471       1.29363612      -7.75342067      -3.10042011      -6.71120716       0.91334506
 C              1.25800022       8.35427555       0.99684088       2.59515215       1.54815872       1.86096071      -7.34482742       0.90911090
 C              2.71035581       1.97185093       6.49862800      -0.98280985      -9.35390030       3.26552642      -8.19286386       0.90935708
 C              1.21259902       4.02725463       6.07770381      -4.30116508      -1.73902231       0.92396951      -6.79500055       0.91823402
 C              3.38299480       5.90325757       8.35329193      -3.51895592       1.12266818      -0.81954858      -9.22514013       0.90758344
 C              1.11688765       1.58986156       8.54461449      -0.05854775       0.12039764      -7.14695502      -6.46719735       0.90742026
 C              1.22007633       2.27733677       3.65607594       1.92501129      -1.62722806       7.02446151      -5.67735913       0.91371878
 C              0.41518643       3.90892007       0.46747294       4.59014955      -2.67163859      -6.00869034      -7.60599858       0.92589322
 C              1.28602418       8.25778093       4.62422799       2.33786474      -2.84778781      -5.39077976      -7.96381948       0.91238474
 C              7.94399809       3.51703989       4.79573249      -2.93380841       4.70290827       4.17345782      -7.96650005       0.91354503
 C              5.21852374       6.94733937       5.36344326      -2.43455160      -2.01551366      -0.93701460      -6.61558742       0.91660075
 C              6.65334727       8.00104786       4.01803777       1.24551283      -1.58888687      -3.67629588      -7.93577073       0.92282264
 C              2.11505823       4.30851436       2.13534077      -6.54447981       4.15782158       2.15356432      -7.64882021       0.92277129
 C              0.22900054       2.87700598       8.24908321       0.76643847      -3.54877997       2.49023869      -7.59547667       0.92137732
 C              9.06153238       8.06204121       4.97881270      -4.52798455      -3.27880345       1.19198550      -7.97414171       0.91012033
 C              1.69379706       5.65246263       4.36359689      -2.14170474       1.63483185       0.53140010      -7.23805786       0.91232518
 C              8.34960337       4.78894736       4.01775544      -0.55936855      -4.58604408      -2.37649435      -7.88779836       0.90846706
 C              9.07461995       6.02763954       1.54838572      -2.64243040       0.70794636      -2.86063484      -7.80061731       0.91625513
 C              5.48737897       2.02758921       0.81266776       2.90623323       0.36168854      -0.30100956      -7.25998367       0.90984157
 C              5.47575772       4.38452607       4.81812799       0.46137007      -0.21906854      -1.18833009      -8.87407135       0.91739955
 C              7.98399851       1.25607852       0.49578835      -3.14490129       3.54905380      -5.93539787      -8.38548122       0.91178550
 C              1.28534112       6.33036580       3.15444053       1.18604952      -3.72091692       1.77429303      -7.12696772       0.91089312
 C              3.76680568       6.90565406       1.96595833      -1.11055068      -4.00018592      -1.66281948      -7.55314923       0.91595627
 C              6.01254831       3.39779459       7.04350612       2.60170105      -1.53150227      -3.21535965      -8.68885925       0.90227168
 C              4.90995953       2.91576776       4.61083077       2.69140991       4.04438533      -3.58584676      -8.74568628       0.90776720
 C              4.69083159       8.17017529       5.44941865      -5.25483073       5.99848028       1.39987076      -7.60828585       0.91846891
 C              5.01027022       5.59038549       2.96976649      -1.18385061      -1.32038754      -3.60167164      -6.03680778       0.92364756
 C              3.28068955       6.88050808       0.37709860       2.17722782       1.36926490       1.34519212      -6.76603874       0.91562991
 C              2.29620764       2.19486780       1.29786402      -1.29340790      -1.15414975      -1.52585742      -8.73376857       0.91096723
 C              7.86404281       8.19661454       7.50795535       4.37141758       3.67440432       0.75018794      -7.90567261       0.91320667
 C              7.28883651       0.24392783       8.44931296       4.36531814       0.37111123      -2.18497694      -8.19100047       0.90928889
 C              3.00047719       5.42967345       4.57430944       1.11945881      -1.98715675      -3.07318145      -6.98307848       0.91017342
 C              6.93939758       1.91383576       1.38696329      -1.99715402      -4.65563873       0.05049466      -8.41638515       0.92330613
 C              1.09663243       8.80526380       6.89768494       6.95316602      -3.73709278       1.44314952      -9.00814958       0.90622559
 C              3.90606030       4.57209631       8.50600753       2.23941494       1.27593601      -0.18006764      -8.54040454       0.90958477
 C              8.35934846       3.10682619      12.09135414      -4.59430785       1.35680069      -2.29923102      -7.78056612       0.91770678
 C              5.91582600       0.89333343      12.77991315      -3.90311404       4.05002662      -5.61661703      -7.73360453       0.92138203
 C              5.96669174       4.33999920       9.39653583       4.10415525       3.48284910       3.95892170      -8.30822854       0.91693579
 C              6.75613521       8.63649157      10.64049219      -0.47461045      -2.36142924       3.73772105      -8.47430318       0.91447894
 C              5.84463219       6.01508932       9.92092193      -4.82163956      -5.03464173       2.30345331      -6.47209263       0.91954298
 C              8.63925116       0.96398990      14.69904951       3.02403938       2.90735008       5.61178753      -7.92993680       0.91705437
 C              5.34793308       6.63465855      11.18233748      -1.78807638       2.50383611       0.02766959      -7.77312746       0.91808636
 C              2.65213116       1.97904590      12.88515103      -1.11975586       4.67031148       0.26191048      -8.12060981       0.91008403
 C              6.41502969       0.50814731      14.02155618       2.45235271      -2.99557638       0.15715935      -6.69037356       0.90956352
 C              4.18430542       0.13081191       9.63816856      -7.36416657      -2.73296561       5.08790120      -6.20726184       0.90775100
 C              1.20501242       7.52252745      16.96368123       0.95526853       9.56393250       3.57071794      -7.54460068       0.91359786
 C              2.38661841       0.00142989      13.95126402       5.39267930      -3.49079746      -0.26834178      -6.78453903       0.91719801
 C              6.86508898       6.60882950       9.42006067      11.21223394       4.58757796      -1.20405719      -6.82634672       0.92542595
 C              3.19257389       2.97317272       9.60097328      -2.65149771       0.41146848      -3.12172829      -6.07604445       0.91088222
 C              7.70704665       3.94912996       9.70462644      -4.23283156       1.08573527      -2.44394438      -7.35292227       0.91546613
 C              8.07495573       8.07008318      12.85219987       0.16554270       2.13392060      -0.80902053      -7.10155730       0.91900842
 C              2.24602497       1.28535023      14.33934635      -0.01215271       6.80645176      -0.78871585      -7.98179651       0.91412362
 C              6.52342790       7.75507083      15.85957149       3.61022482      -0.17166715      -0.82074816      -8.16868960       0.91749655
 C              2.11896537       8.02249617      14.91868747       0.40307918       2.83225253       3.95614285      -7.45621236       0.91375505
 C              3.30383187       7.51181695      12.47317957      -2.79279988      -1.26023264      -2.39680521      -6.49533896       0.91395174
 C              6.90350467       5.31816046      15.56815683       2.74526597       2.98325164      -0.72074113      -8.59155400       0.91459040
 C              6.04355045       5.39654014      13.05210175      -2.32750903      -0.97097472      -4.88305972      -8.03339031       0.91608046
 C              6.07887869       0.00795090      15.35221653      -1.51955904      -0.35005006      -1.89111239      -7.84883570       0.91519879
 C              3.89412939       4.19728370       9.95761630       3.99966056      -1.89282581       4.54059410      -7.84529935       0.91670630
 C              9.05672359       7.43020409      17.60500842      -9.52610886      -0.02755920      -0.52049617      -7.83792306       0.91632139
 C              5.19159267       3.42395150      10.29680923      -3.65391242       1.24411549      -7.55246321      -7.70082814       0.91489599
 C              7.26396376       2.29495990      16.65547222      -6.58142920       1.44329703      -3.38519503      -7.97263746       0.90784990
 C              8.91894439       8.75143811      15.36412011      -5.22997474       0.53331470       0.42040970      -8.35541536       0.90824935
 C              0.16529314       0.80755841      11.53235931       2.78530598      -3.14956144       9.32900364      -6.39691045       0.91635446
 C              6.94731205       0.76128289      11.41464407       1.14651102      -0.48207384       4.90208912      -8.42006353       0.91818049
 C              1.77676695       5.63142417      17.43369518       3.87776058       0.02439258      -1.38166686      -7.01542047       0.90725357
 C              3.86072285       8.54635403      13.30040121      -0.91904262       0.15594327      -1.39493664      -8.52599935       0.90733816
 C              3.51536410       8.04354375      15.49829272      -1.67124193      -2.02842481       1.83250312      -7.39396581       0.91708477
 C              5.47101268       7.02361520      16.73597396       2.65747529       1.25249551       1.62758743      -8.46444422       0.91610341
 C              8.41016865       2.14938463      15.80864200       1.15610185      -1.46691427       1.57664871      -7.05342731       0.91369369
 C              6.27904468       6.66750953      13.64940299       1.35295994       4.40572501       2.96149334      -7.87451961       0.91747453
 C              0.25349988       5.27834220      15.22879996       3.08186065      -2.47063980       9.49489292      -6.78493301       0.92445145
 C              1.33707207       8.72950710      11.48201270      -1.20004032       2.51359634      -1.42895265      -6.83886099       0.90813773
 C              5.09368638       0.88935343      16.59297613       1.17827141      -1.38792370       4.12373957      -6.93052947       0.91065999
 C              8.97522002       3.01991273      14.88006230       7.30873309       3.04057282      -1.56578571      -7.66986248       0.92008991
 C              7.63624447       7.49841973      10.38004324       0.13998252      -0.17952609       3.67837413      -7.86465090       0.92818553
 C              7.67297526       1.27919351      13.71654393      -1.26534247      -3.71562403      -3.21437706      -8.71845130       0.91388083
 C              6.32874465       8.78495394       9.28787351      -6.94657750       1.08905013       1.49802687      -8.16649397       0.91587786
 C              1.51064399       4.52405392      17.91749798      -0.58696006      -6.10148046       3.54598410      -6.42275383       0.91602531
 C              4.98173623       0.02755948      12.19370492      -6.42119628      -0.52618628      -0.34431338      -8.00971597       0.91515887
 C              2.11620578       7.64741945       9.19210750      -1.56388150       4.99883928      -3.20840951      -7.94437352       0.90608786
 C              0.49068812       2.22403021      11.61539295      -5.64277730       6.49625302       4.34374364      -8.34997988       0.91752481
 C              8.04015573       0.56145387      12.38153017       3.56841611      -2.71784343      -1.41667310      -8.58363993       0.91427825
 C              1.57107266       7.65272005      12.34976300       4.07373467       4.14035186       2.43250558      -8.31996075       0.90789386
 C              3.12226351       1.75595617      11.47164830       0.11994723      -1.44761389       3.55673928      -7.20951000       0.90960027
 C              5.96609064       2.49327707      12.69800884      -8.38371272      -1.77131305      -1.84361929      -8.27108877       0.91211446
 C              1.11819914       3.20565235      10.75511997       4.42697407      -1.77632993      -1.80584214      -8.21175893       0.91623020
 C              1.09592204       5.43527460      11.24033444       2.80041259       0.55073389       0.74937089      -7.57410140       0.90600489
 C              7.21359894       6.68913088      14.79150037      -4.41735562      -2.16214981       3.42278030      -8.08387322       0.91437309
 C              3.16535139       4.56323465      12.37472682      -1.10603456      -2.12259031      -0.82385120      -6.89367819       0.92426688
 C              7.25825332       2.54969841      13.04689222      12.95012726      -0.22238672       6.15746930      -6.71212023       0.92091154
 C              6.66485012       4.13365827      14.73593513      -1.15013984       0.81626686       6.27929961      -7.81694008       0.91294311
 C              5.88403151       5.61381925      16.61198361       2.38791467       6.30978709      -5.45608107      -6.96439277       0.91331743
 C              1.02999240       6.29921793      16.54558949       0.64359096      -5.12308174      -6.71350645      -6.26465833       0.91777022
 C              3.79428319       3.70562107      15.22638645      -8.73896068       5.24646260       0.98042679      -6.13722739       0.91304506
 C              5.92161841       8.03262378      11.64296154      -3.43712797      -0.56792568       3.58055850      -8.23288189       0.91889163
 C              2.67925348       3.67378104      17.48627314      -1.71588920      -1.43436117      -3.20349081      -8.71906461       0.91590165
 C              5.85097106       7.47756341      18.12200829      -3.94517393      -0.97062052      -5.82055973      -7.86837561       0.91876870
 C              5.92308473       3.46386995      11.42369698       3.57629323       0.12609765       8.81580618      -6.82636141       0.91835521
 C              8.50695472       6.72995097      14.31078503       3.48755946       3.26591527      -1.02270864      -7.71088275       0.91264899
 C              4.01168069       0.75493492      11.46014545       1.76880516      -1.91200181      -8.44860778      -6.17195738       0.90816303
 C              1.64661078       0.95836143      16.45306576       1.41980628       2.88490699       1.44085546      -7.45705620       0.90584223
 C              4.84733594       2.96443857      15.23424628       3.23389751     -12.84251736       3.28245543      -6.96520262       0.91630374
 C              3.44345079       8.21163291      17.97596853       1.89237012       3.19925431       3.72688429      -6.31529683       0.91738647
 C              8.23754392       5.16237562      16.27141544       0.58623945       1.25026128      -0.05399809      -6.49581687       0.91620764
 C              2.42198307       3.36186525      15.88213092       2.58978206       1.80602797      -0.02649099      -8.05560691       0.90854113
 C              0.11127619       5.58427432      13.88713768       3.18876035       3.01805990      -1.38216701      -7.05575110       0.91581915
 C              9.06275279       0.76437946      10.28587105       1.93753079       2.15047574      -7.82911012      -6.21178944       0.92068389
 C              9.10299911       7.68381326       9.98747089      -2.02182892      -4.24654429      -3.22596600      -7.87564586       0.91253125
 C              5.54187862       4.52294280      17.16810046      -5.88158879      -8.08453923       1.36433421      -6.74174473       0.91120540
 C              3.68438224       3.22897682      12.94902236      -1.66097016      -2.74651855       0.40010429      -7.36615862       0.90552194