     120
 Properties=species:S:1:pos:R:3:forces:R:3:local_energy:R:1:hirshfeld_v:R:1 Lattice="200.0000000000      0.0000000000    0.0000000000    0.0000000000  200.0000000000    0.0000000000    0.0000000000    0.0000000000  200.0000000000" energy=-1072.041574 virial="-0.04017210          -0.54729277     -0.10477851     -0.54729277     -4.20220439      0.67841496     -0.10477851      0.67841496     -4.81996838" stress="0.00000001            0.00000007      0.00000001      0.00000007      0.00000053     -0.00000008      0.00000001     -0.00000008      0.00000060" volume=8000000.000000
 C              7.28766000       6.32384000      11.08071000       0.01256597       0.07092653       0.00932448      -8.93291288       0.85398012
 C              8.17010000       7.19820000      11.83431000      -0.05360951       0.00915700      -0.07091604      -8.93187065       0.85395875
 C              7.82312000       5.40379000      10.17174000       0.07291211       0.00965340      -0.05532478      -8.93058228       0.85401314
 C              9.55575000       7.11947000      11.65181000       0.02131529       0.01266252      -0.08580389      -8.93123896       0.85399506
 C             10.34747000       8.33446000      11.57854000       0.03067895      -0.00366299      -0.07596426      -8.93659293       0.85408954
 C              7.52513000       8.49407000      11.94969000      -0.01561130      -0.04983603      -0.05512016      -8.93400838       0.85396964
 C              8.28815000       9.66528000      11.88021000       0.05625853       0.02653210      -0.07286466      -8.93261403       0.85397520
 C              9.72519000       9.58294000      11.69074000      -0.02185563       0.07186088      -0.08669915      -8.93129287       0.85408450
 C              6.04281000       5.93248000       8.54449000      -0.01076718       0.09050142      -0.01611561      -8.93328355       0.85394107
 C              5.48781000       6.88671000       9.48799000       0.00416736       0.02501642      -0.08270283      -8.93385572       0.85397162
 C              7.19130000       5.20716000       8.87936000       0.07005359      -0.03344163       0.04467805      -8.93920052       0.85407920
 C              6.09683000       7.07853000      10.73395000       0.08571941       0.05794737      -0.04005840      -8.92728704       0.85384843
 C              6.24545000       8.42128000      11.26831000       0.03159812      -0.04924822       0.00482129      -8.93569850       0.85404744
 C              5.00000000       8.02796000       8.73412000       0.04708462      -0.05338287      -0.04123215      -8.93385417       0.85401308
 C              5.14341000       9.32046000       9.25092000       0.03669103       0.07950732       0.05290804      -8.93640414       0.85408342
 C              5.77472000       9.52231000      10.54328000       0.03776302       0.01025745      -0.07363850      -8.92952377       0.85401938
 C              8.09699000       5.52910000       6.60450000      -0.00951815       0.10294048       0.05147116      -8.92875092       0.85381601
 C              6.90696000       6.28678000       6.25862000       0.04525443       0.04362074      -0.02825991      -8.93339655       0.85407565
 C              8.23661000       5.00000000       7.89356000       0.00744716       0.03397291       0.04995492      -8.93528066       0.85397476
 C              5.89729000       6.48231000       7.20819000       0.00195088       0.08335582       0.06627518      -8.92808307       0.85397937
 C              5.25014000       7.77861000       7.32528000       0.09401164      -0.01400299       0.04365459      -8.92556573       0.85397970
 C              7.30750000       7.38081000       5.39018000       0.04368793      -0.07629883       0.05396281      -8.93037873       0.85407898
 C              6.68539000       8.62933000       5.50232000      -0.02580818       0.03688000       0.05954758      -8.93455290       0.85409230
 C              5.63711000       8.83263000       6.48814000       0.08908307       0.01172896      -0.01989550      -8.92940241       0.85402605
 C             10.61144000       5.67417000       7.94558000      -0.04183940       0.11338572      -0.10113043      -8.93237006       0.85404640
 C             10.46803000       6.22407000       6.60851000      -0.00790586       0.05934165       0.14859653      -8.92665969       0.85392756
 C              9.51581000       5.07072000       8.57587000      -0.03852657       0.05356385       0.01056135      -8.93310849       0.85400528
 C              9.23212000       6.15584000       5.95340000      -0.02335803       0.02733484      -0.00576523      -8.93927823       0.85403410
 C              8.74452000       7.29848000       5.20075000      -0.04073793      -0.02679272       0.06757481      -8.93276652       0.85397518
 C             11.25804000       7.44140000       6.53754000      -0.01395959       0.18131451       0.19682062      -8.93396913       0.85459970
 C             10.78743000       8.54244000       5.81255000       0.09962679       0.03733249       0.18317786      -8.93954423       0.85404610
 C              9.50772000       8.46964000       5.13124000      -0.00293908       0.05480393       0.04450046      -8.93454781       0.85397400
 C             10.11096000       6.16490000      10.70855000      -0.00432491       0.03380033       0.03119196      -8.93596795       0.85416549
 C             11.24922000       6.78972000      10.05652000      -0.01431432       0.23533547      -0.16450497      -8.93614659       0.85438733
 C              9.26140000       5.31910000       9.98455000      -0.02555092       0.10113755      -0.06170733      -8.92540527       0.85396393
 C             11.49086000       6.55105000       8.69835000       0.08508393       0.21665040       0.05439971      -8.93737085       0.85676222
 C             11.88928000       7.64325000       7.82994000      -0.28506132      -0.38065945      -0.21423397      -8.93834830       0.86260716
 C             11.39574000       8.13108000      10.59273000      -0.07294028      -0.07588805      -0.16999677      -8.93509737       0.85493981
 C             11.78269000       9.18516000       9.75574000      -0.17941736      -0.04397680       0.01596648      -8.89860814       0.86175647
 C             12.03279000       8.93571000       8.34690000      -0.20752049       0.40740274      -0.03305492      -9.00875087       0.86406121
 C              9.74533000      10.63990000       6.00027000      -0.04664613      -0.05562560      -0.02938139      -8.93395950       0.85398045
 C             10.93620000       9.88519000       6.34702000       0.02189762      -0.21450283       0.20047858      -8.93151751       0.85384544
 C             11.54502000      10.07699000       7.59304000      -0.04951068      -0.17503355       0.10884122      -8.93663770       0.85565821
 C              9.20974000      11.55982000       6.90925000      -0.06603960      -0.00914063       0.05500272      -8.93119911       0.85401128
 C              6.92189000      10.79886000       6.37217000      -0.01236885      -0.04554929      -0.01873458      -8.93444690       0.85416025
 C              7.47719000       9.84434000       5.42897000      -0.03276741      -0.02245695       0.08602465      -8.93021413       0.85399212
 C              8.86285000       9.76560000       5.24659000       0.06680849      -0.00971949       0.07062276      -8.93199691       0.85396489
 C              7.77145000      11.64456000       7.09627000       0.03022614      -0.09627964       0.05778514      -8.92499369       0.85396044
 C              6.42112000      11.28960000       9.13514000       0.02005713      -0.06521123       0.02905282      -8.92924686       0.85404620
 C              5.54173000      10.41268000       8.38235000       0.03276544       0.00130783       0.02877246      -8.93748961       0.85409674
 C              5.78360000      10.17405000       7.02416000       0.09659093      -0.03969053       0.01831009      -8.92908180       0.85396315
 C              7.51683000      11.89289000       8.50490000       0.01222944      -0.06377772      -0.00583685      -8.93244917       0.85400301
 C              8.93558000      11.43467000      10.47645000       0.00929340      -0.10750935      -0.04946721      -8.92915388       0.85381398
 C              7.80046000      10.80795000      11.12755000       0.00687725      -0.02866769       0.00888317      -8.93846248       0.85403666
 C              6.56458000      10.73974000      10.47227000       0.03092126      -0.08424045      -0.06993578      -8.92401063       0.85393602
 C              8.79593000      11.96360000       9.18735000       0.00899427      -0.02984818      -0.04883307      -8.93567441       0.85397361
 C             10.98991000      11.03123000       8.53658000       0.10555555      -0.26374769       0.14786113      -8.93809166       0.85394506
 C             11.13547000      10.48148000       9.87290000      -0.00860228      -0.06770454      -0.25289681      -8.93289812       0.85414450
 C             10.12566000      10.67705000      10.82237000      -0.05077778      -0.07939133       0.03173058      -8.93510323       0.85408165
 C              9.84135000      11.75643000       8.20170000      -0.11110805       0.06010467      -0.04801246      -8.94060525       0.85408118
 C             17.28766000       6.32384000      11.08071000       0.04624944       0.05401413       0.02797080      -8.93398332       0.85398012
 C             18.17010000       7.19820000      11.83431000      -0.06621792       0.00793193      -0.07076339      -8.93208413       0.85395875
 C             17.82312000       5.40379000      10.17174000       0.06491564       0.01063159      -0.05480151      -8.93108076       0.85401314
 C             19.55575000       7.11947000      11.65181000       0.03080861       0.02075040      -0.08547656      -8.93040866       0.85399506
 C             20.34747000       8.33446000      11.57854000       0.02440490      -0.03640504      -0.05945097      -8.93442026       0.85408954
 C             17.52513000       8.49407000      11.94969000       0.00115658      -0.05435397      -0.04487958      -8.93480760       0.85396964
 C             18.28815000       9.66528000      11.88021000       0.04315868       0.02923374      -0.06834813      -8.93274411       0.85397520
 C             19.72519000       9.58294000      11.69074000      -0.04243357       0.07677431      -0.05409663      -8.93024166       0.85408450
 C             16.04281000       5.93248000       8.54449000      -0.10494135       0.26288621      -0.14809254      -8.93819526       0.85394107
 C             15.48781000       6.88671000       9.48799000       0.05039408       0.17545313      -0.10683948      -8.93663356       0.85564986
 C             17.19130000       5.20716000       8.87936000       0.11275932      -0.06000769       0.04691927      -8.94045109       0.85407920
 C             16.09683000       7.07853000      10.73395000      -0.02606406       0.21457089      -0.20271046      -8.93177737       0.85384843
 C             16.24545000       8.42128000      11.26831000      -0.10025315      -0.03585259      -0.18356391      -8.93944551       0.85404744
 C             15.00000000       8.02796000       8.73412000       0.20708085      -0.40674117       0.03122143      -9.00889067       0.86406101
 C             15.14341000       9.32046000       9.25092000       0.28637124       0.38270940       0.21372330      -8.93836106       0.86261143
 C             15.77472000       9.52231000      10.54328000       0.01452158      -0.18179402      -0.19580311      -8.93383596       0.85460773
 C             18.09699000       5.52910000       6.60450000      -0.00909756       0.10648167       0.05032945      -8.92905308       0.85381601
 C             16.90696000       6.28678000       6.25862000       0.05315074       0.07730623      -0.03221047      -8.93510733       0.85407565
 C             18.23661000       5.00000000       7.89356000      -0.00708595       0.03104498       0.04808235      -8.93546643       0.85397476
 C             15.89729000       6.48231000       7.20819000       0.00719392       0.06744872       0.25177170      -8.93321217       0.85414287
 C             15.25014000       7.77861000       7.32528000       0.17913455       0.04500508      -0.01789064      -8.89852277       0.86175626
 C             17.30750000       7.38081000       5.39018000       0.02311743      -0.07138392       0.08658351      -8.93143005       0.85407898
 C             16.68539000       8.62933000       5.50232000      -0.03209109       0.00417506       0.07610658      -8.93672533       0.85409230
 C             15.63711000       8.83263000       6.48814000       0.07270250       0.07627295       0.17063931      -8.93484483       0.85494209
 C             20.61144000       5.67417000       7.94558000      -0.02032835       0.06351905      -0.02759919      -8.92930243       0.85404640
 C             20.46803000       6.22407000       6.60851000      -0.02922952       0.08245184       0.07230191      -8.92409688       0.85392756
 C             19.51581000       5.07072000       8.57587000      -0.01052615       0.06563594       0.00604881      -8.93228613       0.85400528
 C             19.23212000       6.15584000       5.95340000      -0.00823504       0.02804599      -0.01065388      -8.93871703       0.85403410
 C             18.74452000       7.29848000       5.20075000      -0.05383440      -0.02409236       0.07208997      -8.93263651       0.85397518
 C             21.25804000       7.44140000       6.53754000      -0.03718573      -0.01064908       0.07467562      -8.92965476       0.85401177
 C             20.78743000       8.54244000       5.81255000      -0.03213499       0.05067649      -0.00513057      -8.93579694       0.85404610
 C             19.50772000       8.46964000       5.13124000       0.01382652       0.05028343       0.05473193      -8.93374851       0.85397400
 C             20.11096000       6.16490000      10.70855000       0.01266584       0.04586067       0.01945806      -8.93430586       0.85416549
 C             21.24922000       6.78972000      10.05652000      -0.09920907       0.03876877      -0.01366047      -8.92899202       0.85395653
 C             19.26140000       5.31910000       9.98455000      -0.03156677       0.09647634      -0.05770876      -8.92485644       0.85396393
 C             21.49086000       6.55105000       8.69835000      -0.03080806      -0.00151936      -0.02852426      -8.93790760       0.85409401
 C             21.88928000       7.64325000       7.82994000      -0.03587016      -0.07774331      -0.05336830      -8.93639924       0.85407944
 C             21.39574000       8.13108000      10.59273000      -0.08927721      -0.01121405       0.02051892      -8.92965858       0.85402301
 C             21.78269000       9.18516000       9.75574000      -0.09391340       0.01481714      -0.04539483      -8.92566807       0.85397913
 C             22.03279000       8.93571000       8.34690000      -0.04741728       0.05424767       0.03928470      -8.93364704       0.85401390
 C             19.74533000      10.63990000       6.00027000      -0.01295886      -0.07253887      -0.01074316      -8.93288876       0.85398045
 C             20.93620000       9.88519000       6.34702000      -0.08983639      -0.05776082       0.03780147      -8.92702573       0.85384544
 C             21.54502000      10.07699000       7.59304000      -0.00330629      -0.02466536       0.08461192      -8.93387057       0.85397820
 C             19.20974000      11.55982000       6.90925000      -0.07404410      -0.00815382       0.05552430      -8.93070051       0.85401128
 C             16.92189000      10.79886000       6.37217000       0.00459431      -0.03348825      -0.03044334      -8.93610883       0.85416025
 C             17.47719000       9.84434000       5.42897000      -0.02329048      -0.01437333       0.08636067      -8.93104423       0.85399212
 C             18.86285000       9.76560000       5.24659000       0.05420756      -0.01094427       0.07077018      -8.93178329       0.85396489
 C             17.77145000      11.64456000       7.09627000       0.02419003      -0.10094612       0.06179403      -8.92554247       0.85396044
 C             16.42112000      11.28960000       9.13514000       0.04160423      -0.11506565       0.10264477      -8.93231519       0.85404620
 C             15.54173000      10.41268000       8.38235000      -0.08314079      -0.21706952      -0.05412446      -8.93695360       0.85676710
 C             15.78360000      10.17405000       7.02416000       0.01177711      -0.23615829       0.16911412      -8.93623473       0.85439345
 C             17.51683000      11.89289000       8.50490000       0.04023198      -0.05171480      -0.01036232      -8.93327170       0.85400301
 C             18.93558000      11.43467000      10.47645000       0.00970597      -0.10396507      -0.05060843      -8.92885186       0.85381398
 C             17.80046000      10.80795000      11.12755000       0.02201077      -0.02795149       0.00399704      -8.93902383       0.85403666
 C             16.56458000      10.73974000      10.47227000       0.00953156      -0.06109164      -0.14628710      -8.92657394       0.85393602
 C             18.79593000      11.96360000       9.18735000      -0.00554989      -0.03277836      -0.05071004      -8.93548879       0.85397361
 C             20.98991000      11.03123000       8.53658000       0.01126605      -0.09134823       0.01591156      -8.93317989       0.85394506
 C             21.13547000      10.48148000       9.87290000      -0.00335242      -0.08358450      -0.06743306      -8.92776859       0.85398101
 C             20.12566000      10.67705000      10.82237000      -0.04291641      -0.04571082       0.02779130      -8.93339271       0.85408165
 C             19.84135000      11.75643000       8.20170000      -0.06840827       0.03354050      -0.04576159      -8.93935471       0.85408118
