      60
 Properties=species:S:1:pos:R:3:forces:R:3:local_energy:R:1:hirshfeld_v:R:1 Lattice="200.0000000000      0.0000000000    0.0000000000    0.0000000000  200.0000000000    0.0000000000    0.0000000000    0.0000000000  200.0000000000" energy=-536.087826 virial="-0.36262334          -0.17973803      0.04366863     -0.17973803     -0.67354439      0.01270622      0.04366863      0.01270622     -0.43647927" stress="0.00000005            0.00000002     -0.00000001      0.00000002      0.00000008     -0.00000000     -0.00000001     -0.00000000      0.00000005" volume=8000000.000000
 C              7.28766000       6.32384000      11.08071000      -0.00584460       0.04407864       0.04453897      -8.93575925       0.85398012
 C              8.17010000       7.19820000      11.83431000      -0.06986759      -0.00866759      -0.02401038      -8.93453407       0.85395875
 C              7.82312000       5.40379000      10.17174000       0.05872425      -0.03400396      -0.03465865      -8.93332435       0.85401314
 C              9.55575000       7.11947000      11.65181000       0.04726803       0.00265373      -0.04467917      -8.93321959       0.85399506
 C             10.34747000       8.33446000      11.57854000       0.04998895      -0.04051108      -0.01967593      -8.93734854       0.85408954
 C              7.52513000       8.49407000      11.94969000      -0.03194299      -0.05161985      -0.00952979      -8.93682587       0.85396964
 C              8.28815000       9.66528000      11.88021000       0.04205241       0.04738682      -0.02313045      -8.93524458       0.85397520
 C              9.72519000       9.58294000      11.69074000      -0.02659095       0.09344648      -0.01219401      -8.93308304       0.85408450
 C              6.04281000       5.93248000       8.54449000      -0.04564432       0.05819703      -0.01667167      -8.93629081       0.85394107
 C              5.48781000       6.88671000       9.48799000      -0.03469058       0.00485503      -0.07337643      -8.93690444       0.85397162
 C              7.19130000       5.20716000       8.87936000       0.05414125      -0.07777382       0.04972143      -8.94206924       0.85407920
 C              6.09683000       7.07853000      10.73395000       0.05457556       0.03988922      -0.00904181      -8.93029212       0.85384843
 C              6.24545000       8.42128000      11.26831000       0.00225163      -0.05203506       0.04190789      -8.93869069       0.85404744
 C              5.00000000       8.02796000       8.73412000       0.00044095      -0.06158964      -0.03966176      -8.93692258       0.85401308
 C              5.14341000       9.32046000       9.25092000      -0.00493388       0.09238963       0.06273320      -8.93946950       0.85408342
 C              5.77472000       9.52231000      10.54328000       0.00073094       0.02587696      -0.04851451      -8.93255066       0.85401938
 C              8.09699000       5.52910000       6.60450000      -0.01863814       0.06347177       0.02321296      -8.93144395       0.85381601
 C              6.90696000       6.28678000       6.25862000       0.02545906       0.01442740      -0.05989651      -8.93629895       0.85407565
 C              8.23661000       5.00000000       7.89356000      -0.00832062      -0.01717798       0.03991691      -8.93793166       0.85397476
 C              5.89729000       6.48231000       7.20819000      -0.03457256       0.05739841       0.05051153      -8.93109971       0.85397937
 C              5.25014000       7.77861000       7.32528000       0.05017388      -0.02505685       0.02913178      -8.92862411       0.85397970
 C              7.30750000       7.38081000       5.39018000       0.02783984      -0.09296956       0.01205924      -8.93322024       0.85407898
 C              6.68539000       8.62933000       5.50232000      -0.05139120       0.04098517       0.01977287      -8.93748118       0.85409230
 C              5.63711000       8.83263000       6.48814000       0.05167658       0.01826169      -0.04828079      -8.93244447       0.85402605
 C             10.61144000       5.67417000       7.94558000       0.00952319       0.02771597      -0.03659685      -8.93226462       0.85404640
 C             10.46803000       6.22407000       6.60851000      -0.00097687       0.05284351       0.04805906      -8.92703952       0.85392756
 C              9.51581000       5.07072000       8.57587000       0.00158585       0.01958594       0.00758165      -8.93509103       0.85400528
 C              9.23212000       6.15584000       5.95340000       0.00078289      -0.00265684      -0.04628524      -8.94147893       0.85403410
 C              8.74452000       7.29848000       5.20075000      -0.03962968      -0.04494718       0.02235781      -8.93526713       0.85397518
 C             11.25804000       7.44140000       6.53754000      -0.00015515      -0.02626716       0.04954762      -8.93268164       0.85401177
 C             10.78743000       8.54244000       5.81255000      -0.00278491       0.05345916      -0.04221580      -8.93878909       0.85404610
 C              9.50772000       8.46964000       5.13124000       0.03015760       0.05206874       0.00914281      -8.93656595       0.85397400
 C             10.11096000       6.16490000      10.70855000       0.03558697       0.01698580       0.04921163      -8.93720551       0.85416549
 C             11.24922000       6.78972000      10.05652000      -0.06334651       0.01690335       0.00852493      -8.93202880       0.85395653
 C              9.26140000       5.31910000       9.98455000      -0.02156560       0.05288382      -0.03967311      -8.92760885       0.85396393
 C             11.49086000       6.55105000       8.69835000       0.00884362      -0.02732617      -0.02861778      -8.94095796       0.85409401
 C             11.88928000       7.64325000       7.82994000       0.00833157      -0.09103073      -0.06364287      -8.93946459       0.85407944
 C             11.39574000       8.13108000      10.59273000      -0.05186621      -0.01774364       0.04889912      -8.93270066       0.85402301
 C             11.78269000       9.18516000       9.75574000      -0.05007443       0.02586704      -0.03086898      -8.92872637       0.85397913
 C             12.03279000       8.93571000       8.34690000      -0.00077410       0.06245455       0.03771757      -8.93671535       0.85401390
 C              9.74533000      10.63990000       6.00027000       0.00545323      -0.04568974      -0.04595610      -8.93573508       0.85398045
 C             10.93620000       9.88519000       6.34702000      -0.05868944      -0.03970168       0.00678469      -8.93003064       0.85384544
 C             11.54502000      10.07699000       7.59304000       0.03774105      -0.00331098       0.07430795      -8.93691930       0.85397820
 C              9.20974000      11.55982000       6.90925000      -0.05985784       0.03550119       0.03485993      -8.93344278       0.85401128
 C              6.92189000      10.79886000       6.37217000      -0.03528655      -0.01667140      -0.04849165      -8.93734640       0.85416025
 C              7.47719000       9.84434000       5.42897000      -0.04922565      -0.00436014       0.04522625      -8.93302493       0.85399212
 C              8.86285000       9.76560000       5.24659000       0.07046047       0.00688121       0.02386957      -8.93444677       0.85396489
 C              7.77145000      11.64456000       7.09627000       0.02022414      -0.05268994       0.03974569      -8.92774606       0.85396044
 C              6.42112000      11.28960000       9.13514000      -0.00979847      -0.02940756       0.03804858      -8.93220897       0.85404620
 C              5.54173000      10.41268000       8.38235000      -0.00688691       0.02711575       0.02886472      -8.94053978       0.85409674
 C              5.78360000      10.17405000       7.02416000       0.06072915      -0.01782618      -0.00387415      -8.93211853       0.85396315
 C              7.51683000      11.89289000       8.50490000       0.00011537      -0.01773081      -0.00737119      -8.93525418       0.85400301
 C              8.93558000      11.43467000      10.47645000       0.01882363      -0.06449361      -0.02234863      -8.93154474       0.85381398
 C              7.80046000      10.80795000      11.12755000      -0.00214551       0.00203541       0.04451332      -8.94122431       0.85403666
 C              6.56458000      10.73974000      10.47227000       0.00266923      -0.05463063      -0.04569696      -8.92695323       0.85393602
 C              8.79593000      11.96360000       9.18735000       0.01022437       0.01837297      -0.04066622      -8.93813982       0.85397361
 C             10.98991000      11.03123000       8.53658000       0.04614281      -0.05904272       0.01646861      -8.93618712       0.85394506
 C             11.13547000      10.48148000       9.87290000       0.03316871      -0.05762382      -0.05166649      -8.93078514       0.85398101
 C             10.12566000      10.67705000      10.82237000      -0.02312197      -0.01651748       0.05942633      -8.93629501       0.85408165
 C              9.84135000      11.75643000       8.20170000      -0.05249509       0.07787046      -0.05080157      -8.94222366       0.85408118
