      60
 Properties=species:S:1:pos:R:3:forces:R:3:local_energy:R:1:hirshfeld_v:R:1 Lattice="200.0000000000      0.0000000000    0.0000000000    0.0000000000  200.0000000000    0.0000000000    0.0000000000    0.0000000000  200.0000000000" energy=-521.677455 virial="1.87604668           -0.29654412      0.02523265     -0.29654412      1.65077359      0.08621061      0.02523265      0.08621061      1.62106281" stress="-0.00000023           0.00000004     -0.00000000      0.00000004     -0.00000021     -0.00000001     -0.00000000     -0.00000001     -0.00000020" volume=8000000.000000
 C              7.28766000       6.32384000      11.08071000       0.28787601       0.07223695      -0.49744215      -8.69539782       0.85398012
 C              8.17010000       7.19820000      11.83431000       0.31692642       0.12221223      -0.47412279      -8.69651957       0.85395875
 C              7.82312000       5.40379000      10.17174000       0.00543861       0.57272911      -0.02028639      -8.69418232       0.85401314
 C              9.55575000       7.11947000      11.65181000      -0.41464835       0.19118608      -0.37942528      -8.69138595       0.85399506
 C             10.34747000       8.33446000      11.57854000      -0.32813030       0.30322850      -0.35715780      -8.69541649       0.85408954
 C              7.52513000       8.49407000      11.94969000       0.27695327       0.23709924      -0.44261873      -8.69171349       0.85396964
 C              8.28815000       9.66528000      11.88021000      -0.12624827      -0.38289490      -0.40402822      -8.69368895       0.85397520
 C              9.72519000       9.58294000      11.69074000      -0.01606537      -0.34642788      -0.42876989      -8.69154586       0.85408450
 C              6.04281000       5.93248000       8.54449000       0.53579102       0.16801986       0.05790540      -8.69286291       0.85394107
 C              5.48781000       6.88671000       9.48799000       0.49788179       0.24777924       0.10513451      -8.69601905       0.85397162
 C              7.19130000       5.20716000       8.87936000      -0.07680935       0.50956730      -0.08696656      -8.69231285       0.85407920
 C              6.09683000       7.07853000      10.73395000       0.19220544       0.16095125      -0.57682831      -8.69498178       0.85384843
 C              6.24545000       8.42128000      11.26831000       0.16542283       0.23678173      -0.48481171      -8.69589649       0.85404744
 C              5.00000000       8.02796000       8.73412000       0.45564114       0.32688014       0.07158567      -8.69341091       0.85401308
 C              5.14341000       9.32046000       9.25092000       0.37731431      -0.34172395      -0.14843799      -8.69150386       0.85408342
 C              5.77472000       9.52231000      10.54328000       0.45017403      -0.37389294      -0.10286960      -8.69527918       0.85401938
 C              8.09699000       5.52910000       6.60450000       0.06089559       0.28163367       0.56420022      -8.69287288       0.85381601
 C              6.90696000       6.28678000       6.25862000      -0.03284971       0.33862445       0.45862755      -8.69783423       0.85407565
 C              8.23661000       5.00000000       7.89356000      -0.00756870       0.54677950      -0.19869080      -8.69417625       0.85397476
 C              5.89729000       6.48231000       7.20819000       0.53665233       0.24701199      -0.01983641      -8.69587910       0.85397937
 C              5.25014000       7.77861000       7.32528000       0.54473100       0.31527671      -0.02996975      -8.69756653       0.85397970
 C              7.30750000       7.38081000       5.39018000       0.01703489       0.34638120       0.42813538      -8.69150208       0.85407898
 C              6.68539000       8.62933000       5.50232000       0.32696162      -0.30259941       0.35669390      -8.69548694       0.85409230
 C              5.63711000       8.83263000       6.48814000       0.32757330      -0.28879291       0.41395838      -8.69556469       0.85402605
 C             10.61144000       5.67417000       7.94558000      -0.51896698       0.22801940       0.20224411      -8.69589191       0.85404640
 C             10.46803000       6.22407000       6.60851000      -0.53796242       0.30796133       0.11662704      -8.69563422       0.85392756
 C              9.51581000       5.07072000       8.57587000       0.16458147       0.58536111      -0.15008447      -8.69581094       0.85400528
 C              9.23212000       6.15584000       5.95340000       0.23003304       0.31157439       0.43892287      -8.69636885       0.85403410
 C              8.74452000       7.29848000       5.20075000       0.12858097       0.38571502       0.40337782      -8.69370842       0.85397518
 C             11.25804000       7.44140000       6.53754000      -0.44904259       0.37324880       0.10364390      -8.69535009       0.85401177
 C             10.78743000       8.54244000       5.81255000      -0.16588829      -0.23501337       0.48418352      -8.69586481       0.85404610
 C              9.50772000       8.46964000       5.13124000      -0.27908833      -0.23677485       0.44278305      -8.69178065       0.85397400
 C             10.11096000       6.16490000      10.70855000      -0.37472547       0.10299199      -0.41825343      -8.69726277       0.85416549
 C             11.24922000       6.78972000      10.05652000      -0.32283691       0.14640264      -0.50744736      -8.69295842       0.85395653
 C              9.26140000       5.31910000       9.98455000       0.09919989       0.63441128      -0.03791982      -8.69643854       0.85396393
 C             11.49086000       6.55105000       8.69835000      -0.41575519       0.26707709       0.29031977      -8.69209662       0.85409401
 C             11.88928000       7.64325000       7.82994000      -0.37671075       0.34375980       0.14805310      -8.69152936       0.85407944
 C             11.39574000       8.13108000      10.59273000      -0.32716725       0.28899660      -0.41307513      -8.69564820       0.85402301
 C             11.78269000       9.18516000       9.75574000      -0.54438317      -0.31387850       0.02849989      -8.69758932       0.85397913
 C             12.03279000       8.93571000       8.34690000      -0.45646428      -0.32619261      -0.07302587      -8.69341627       0.85401390
 C              9.74533000      10.63990000       6.00027000      -0.28820911      -0.07366487       0.49606709      -8.69543946       0.85398045
 C             10.93620000       9.88519000       6.34702000      -0.19661271      -0.16172117       0.57412284      -8.69502806       0.85384544
 C             11.54502000      10.07699000       7.59304000      -0.49738785      -0.24707121      -0.10282470      -8.69603933       0.85397820
 C              9.20974000      11.55982000       6.90925000      -0.00612881      -0.57129145       0.02073117      -8.69408030       0.85401128
 C              6.92189000      10.79886000       6.37217000       0.37440618      -0.10246096       0.41914044      -8.69721874       0.85416025
 C              7.47719000       9.84434000       5.42897000       0.41241248      -0.19361554       0.38025376      -8.69137601       0.85399212
 C              8.86285000       9.76560000       5.24659000      -0.31613177      -0.12353871       0.47427479      -8.69654044       0.85396489
 C              7.77145000      11.64456000       7.09627000      -0.10025051      -0.63393260       0.03739488      -8.69649252       0.85396044
 C              6.42112000      11.28960000       9.13514000       0.51853556      -0.22945019      -0.20080420      -8.69583004       0.85404620
 C              5.54173000      10.41268000       8.38235000       0.41773160      -0.26814603      -0.28937047      -8.69222798       0.85409674
 C              5.78360000      10.17405000       7.02416000       0.32044819      -0.14665643       0.51217580      -8.69306294       0.85396315
 C              7.51683000      11.89289000       8.50490000      -0.16333760      -0.58375316       0.14975047      -8.69572840       0.85400301
 C              8.93558000      11.43467000      10.47645000      -0.06055293      -0.28251419      -0.56323412      -8.69280089       0.85381398
 C              7.80046000      10.80795000      11.12755000      -0.23097298      -0.31288497      -0.44045166      -8.69644846       0.85403666
 C              6.56458000      10.73974000      10.47227000       0.53988088      -0.30928693      -0.11496916      -8.69575709       0.85393602
 C              8.79593000      11.96360000       9.18735000       0.00897748      -0.54541838       0.19827382      -8.69414419       0.85397361
 C             10.98991000      11.03123000       8.53658000      -0.53524474      -0.16868836      -0.05884198      -8.69286765       0.85394506
 C             11.13547000      10.48148000       9.87290000      -0.53786792      -0.24804658       0.01842103      -8.69586555       0.85398101
 C             10.12566000      10.67705000      10.82237000       0.03503086      -0.34031639      -0.45945284      -8.69791778       0.85408165
 C              9.84135000      11.75643000       8.20170000       0.07871853      -0.50925879       0.08650900      -8.69223920       0.85408118
