      60
 Properties=species:S:1:pos:R:3:forces:R:3:local_energy:R:1:hirshfeld_v:R:1 Lattice="200.0000000000      0.0000000000    0.0000000000    0.0000000000  200.0000000000    0.0000000000    0.0000000000    0.0000000000  200.0000000000" energy=-525.999873 virial="1.87604668           -0.29654412      0.02523265     -0.29654412      1.65077359      0.08621061      0.02523265      0.08621061      1.62106281" stress="-0.00000023           0.00000004     -0.00000000      0.00000004     -0.00000021     -0.00000001     -0.00000000     -0.00000001     -0.00000020" volume=8000000.000000
 C              7.28766000       6.32384000      11.08071000       0.41177339      -0.21728918      -0.69813917      -8.76742586       0.85398012
 C              8.17010000       7.19820000      11.83431000       0.69355408       0.07659158      -0.45127259      -8.76854597       0.85395875
 C              7.82312000       5.40379000      10.17174000      -0.15546757       0.76544528       0.26864280      -8.76622606       0.85401314
 C              9.55575000       7.11947000      11.65181000      -0.77338177       0.18169128      -0.25890153      -8.76343169       0.85399506
 C             10.34747000       8.33446000      11.57854000      -0.46398432       0.64497255      -0.26201476      -8.76748133       0.85408954
 C              7.52513000       8.49407000      11.94969000       0.46615110       0.56066783      -0.38176986      -8.76378905       0.85396964
 C              8.28815000       9.66528000      11.88021000      -0.34211900      -0.68262795      -0.30907790      -8.76575200       0.85397520
 C              9.72519000       9.58294000      11.69074000       0.17956413      -0.66771211      -0.39742542      -8.76363845       0.85408450
 C              6.04281000       5.93248000       8.54449000       0.79647020      -0.08318939       0.15326402      -8.76491746       0.85394107
 C              5.48781000       6.88671000       9.48799000       0.60102553       0.27203470       0.47078982      -8.76806646       0.85397162
 C              7.19130000       5.20716000       8.87936000      -0.42419074       0.63216405      -0.16606629      -8.76443591       0.85407920
 C              6.09683000       7.07853000      10.73395000      -0.02700121       0.08197995      -0.87105330      -8.76697144       0.85384843
 C              6.24545000       8.42128000      11.26831000      -0.01324269       0.54028627      -0.62838012      -8.76797311       0.85404744
 C              5.00000000       8.02796000       8.73412000       0.42038567       0.67700399       0.22160965      -8.76547184       0.85401308
 C              5.14341000       9.32046000       9.25092000       0.26101496      -0.67631322      -0.27634780      -8.76362843       0.85408342
 C              5.77472000       9.52231000      10.54328000       0.52154416      -0.65409721       0.13551130      -8.76733351       0.85401938
 C              8.09699000       5.52910000       6.60450000       0.08785709       0.07804627       0.87533973      -8.76485797       0.85381601
 C              6.90696000       6.28678000       6.25862000      -0.34645403       0.34531500       0.67535883      -8.76988464       0.85407565
 C              8.23661000       5.00000000       7.89356000      -0.05274961       0.61606949      -0.56100050      -8.76622087       0.85397476
 C              5.89729000       6.48231000       7.20819000       0.76095871       0.15784823      -0.30268618      -8.76788946       0.85397937
 C              5.25014000       7.77861000       7.32528000       0.58728338       0.59748962      -0.27992079      -8.76952966       0.85397970
 C              7.30750000       7.38081000       5.39018000      -0.17856284       0.66784456       0.39664435      -8.76359528       0.85407898
 C              6.68539000       8.62933000       5.50232000       0.46275469      -0.64450023       0.26137342      -8.76755265       0.85409230
 C              5.63711000       8.83263000       6.48814000       0.16650257      -0.56458544       0.60241991      -8.76757254       0.85402605
 C             10.61144000       5.67417000       7.94558000      -0.77382355       0.00501731       0.36038826      -8.76790617       0.85404640
 C             10.46803000       6.22407000       6.60851000      -0.83598583       0.24420866      -0.09834893      -8.76760293       0.85392756
 C              9.51581000       5.07072000       8.57587000       0.48484955       0.67855240      -0.31822843      -8.76781764       0.85400528
 C              9.23212000       6.15584000       5.95340000       0.58254098       0.28655880       0.56910516      -8.76841381       0.85403410
 C              8.74452000       7.29848000       5.20075000       0.34429657       0.68528570       0.30837632      -8.76577273       0.85397518
 C             11.25804000       7.44140000       6.53754000      -0.52040963       0.65354918      -0.13469003      -8.76740323       0.85401177
 C             10.78743000       8.54244000       5.81255000       0.01267963      -0.53838855       0.62777452      -8.76794060       0.85404610
 C              9.50772000       8.46964000       5.13124000      -0.46845660      -0.56034866       0.38181069      -8.76385605       0.85397400
 C             10.11096000       6.16490000      10.70855000      -0.57464686      -0.17709362      -0.57312086      -8.76931880       0.85416549
 C             11.24922000       6.78972000      10.05652000      -0.19576080       0.04232208      -0.84435866      -8.76497254       0.85395653
 C              9.26140000       5.31910000       9.98455000       0.34825719       0.80302824       0.19390442      -8.76841805       0.85396393
 C             11.49086000       6.55105000       8.69835000      -0.41176541       0.28569725       0.66976952      -8.76419651       0.85409401
 C             11.88928000       7.64325000       7.82994000      -0.26049736       0.67826710       0.27590984      -8.76365425       0.85407944
 C             11.39574000       8.13108000      10.59273000      -0.16618082       0.56479592      -0.60142814      -8.76765531       0.85402301
 C             11.78269000       9.18516000       9.75574000      -0.58694304      -0.59602422       0.27848218      -8.76955114       0.85397913
 C             12.03279000       8.93571000       8.34690000      -0.42135628      -0.67614004      -0.22316749      -8.76547646       0.85401390
 C              9.74533000      10.63990000       6.00027000      -0.41228311       0.21604493       0.69675604      -8.76746694       0.85398045
 C             10.93620000       9.88519000       6.34702000       0.02209615      -0.08291970       0.86831228      -8.76701483       0.85384544
 C             11.54502000      10.07699000       7.59304000      -0.60051868      -0.27117200      -0.46875599      -8.76808693       0.85397820
 C              9.20974000      11.55982000       6.90925000       0.15480754      -0.76387813      -0.26821219      -8.76612612       0.85401128
 C              6.92189000      10.79886000       6.37217000       0.57428258       0.17761951       0.57410870      -8.76927327       0.85416025
 C              7.47719000       9.84434000       5.42897000       0.77082671      -0.18447476       0.26014668      -8.76341936       0.85399212
 C              8.86285000       9.76560000       5.24659000      -0.69299473      -0.07794473       0.45130062      -8.76856655       0.85396489
 C              7.77145000      11.64456000       7.09627000      -0.34917397      -0.80248027      -0.19441290      -8.76847245       0.85396044
 C              6.42112000      11.28960000       9.13514000       0.77353520      -0.00657778      -0.35874669      -8.76784183       0.85404620
 C              5.54173000      10.41268000       8.38235000       0.41402173      -0.28707253      -0.66828330      -8.76432426       0.85409674
 C              5.78360000      10.17405000       7.02416000       0.19306930      -0.04255824       0.84932236      -8.76507617       0.85396315
 C              7.51683000      11.89289000       8.50490000      -0.48332445      -0.67694712       0.31788387      -8.76773625       0.85400301
 C              8.93558000      11.43467000      10.47645000      -0.08737190      -0.07880727      -0.87445047      -8.76478548       0.85381398
 C              7.80046000      10.80795000      11.12755000      -0.58299908      -0.28813504      -0.57072200      -8.76849098       0.85403666
 C              6.56458000      10.73974000      10.47227000       0.83816713      -0.24550326       0.10034741      -8.76772408       0.85393602
 C              8.79593000      11.96360000       9.18735000       0.05436519      -0.61452762       0.56069703      -8.76619099       0.85397361
 C             10.98991000      11.03123000       8.53658000      -0.79608336       0.08276851      -0.15440073      -8.76492272       0.85394506
 C             11.13547000      10.48148000       9.87290000      -0.76214082      -0.15918150       0.30080002      -8.76787378       0.85398101
 C             10.12566000      10.67705000      10.82237000       0.34899621      -0.34696699      -0.67633371      -8.76996685       0.85408165
 C              9.84135000      11.75643000       8.20170000       0.42623507      -0.63169870       0.16555776      -8.76436565       0.85408118
