      60
 Properties=species:S:1:pos:R:3:forces:R:3:local_energy:R:1:hirshfeld_v:R:1 Lattice="200.0000000000      0.0000000000    0.0000000000    0.0000000000  200.0000000000    0.0000000000    0.0000000000    0.0000000000  200.0000000000" energy=-523.438327 virial="1.86847213           -0.30424654      0.03683944     -0.30424654      1.64656950      0.06881282      0.03683944      0.06881282      1.61273464" stress="-0.00000023           0.00000004     -0.00000000      0.00000004     -0.00000021     -0.00000001     -0.00000000     -0.00000001     -0.00000020" volume=8000000.000000
 C              7.28666000       6.32384000      11.08071000       0.15856009      -0.27690816      -0.13315186      -8.72490954       0.85398724
 C              8.17010000       7.19820000      11.83431000       0.27582785      -0.07150025       0.00957094      -8.72674385       0.85398825
 C              7.82312000       5.40379000      10.17174000      -0.11754413       0.13959930       0.24877365      -8.72389814       0.85404149
 C              9.55575000       7.11947000      11.65181000      -0.28637490      -0.01453520       0.08560541      -8.72052450       0.85400943
 C             10.34747000       8.33446000      11.57854000      -0.06482713       0.29789299       0.09678243      -8.72486617       0.85408747
 C              7.52513000       8.49407000      11.94969000       0.14231290       0.25536799       0.06442177      -8.72004087       0.85397463
 C              8.28815000       9.66528000      11.88021000      -0.17115092      -0.22495409       0.08978364      -8.72301493       0.85397471
 C              9.72519000       9.58294000      11.69074000       0.17216818      -0.20183696       0.03452700      -8.72094553       0.85408323
 C              6.04281000       5.93248000       8.54449000       0.18433899      -0.21716614       0.06695574      -8.72214358       0.85393960
 C              5.48781000       6.88671000       9.48799000       0.05364261       0.01734198       0.26180118      -8.72575447       0.85395983
 C              7.19130000       5.20716000       8.87936000      -0.28954671       0.03308568      -0.03688593      -8.72138195       0.85408501
 C              6.09683000       7.07853000      10.73395000      -0.18958899      -0.04237810      -0.27079132      -8.72315079       0.85381845
 C              6.24545000       8.42128000      11.26831000      -0.18006394       0.25184666      -0.08736528      -8.72635593       0.85404402
 C              5.00000000       8.02796000       8.73412000      -0.06371948       0.28183409       0.11240489      -8.72266420       0.85401444
 C              5.14341000       9.32046000       9.25092000      -0.12565555      -0.23299102      -0.05270655      -8.72084475       0.85408446
 C              5.77472000       9.52231000      10.54328000       0.05094990      -0.23299584       0.20429828      -8.72456597       0.85401995
 C              8.09699000       5.52910000       6.60450000       0.00072303      -0.16452035       0.29817168      -8.72219368       0.85381601
 C              6.90696000       6.28678000       6.25862000      -0.28677228       0.01484463       0.13674846      -8.72719659       0.85407565
 C              8.23661000       5.00000000       7.89356000      -0.05050538       0.03702328      -0.30988758      -8.72358773       0.85397409
 C              5.89729000       6.48231000       7.20819000       0.16242729      -0.04916447      -0.22920647      -8.72520415       0.85397960
 C              5.25014000       7.77861000       7.32528000       0.06539526       0.23042761      -0.21979128      -8.72690897       0.85397970
 C              7.30750000       7.38081000       5.39018000      -0.17142779       0.20174867      -0.03520673      -8.72086722       0.85407898
 C              6.68539000       8.62933000       5.50232000       0.06464145      -0.29660838      -0.09746323      -8.72483359       0.85409230
 C              5.63711000       8.83263000       6.48814000      -0.10629595      -0.24967662       0.12093855      -8.72493558       0.85402605
 C             10.61144000       5.67417000       7.94558000      -0.22418226      -0.20198915       0.12419073      -8.72524731       0.85404640
 C             10.46803000       6.22407000       6.60851000      -0.26664983      -0.03259968      -0.17919489      -8.72497766       0.85392756
 C              9.51581000       5.07072000       8.57587000       0.32978000       0.08790803      -0.15079561      -8.72521029       0.85400445
 C              9.23212000       6.15584000       5.95340000       0.35485894      -0.03218716       0.06694425      -8.72572864       0.85403410
 C              8.74452000       7.29848000       5.20075000       0.17389908       0.22834488      -0.09015953      -8.72305694       0.85397518
 C             11.25804000       7.44140000       6.53754000      -0.04923288       0.23138485      -0.20344035      -8.72469971       0.85401177
 C             10.78743000       8.54244000       5.81255000       0.17847009      -0.24394633       0.08797747      -8.72522453       0.85404610
 C              9.50772000       8.46964000       5.13124000      -0.14367547      -0.25791497      -0.06471896      -8.72112666       0.85397400
 C             10.11096000       6.16490000      10.70855000      -0.14973592      -0.25602109      -0.10726774      -8.72670084       0.85417089
 C             11.24922000       6.78972000      10.05652000       0.08680237      -0.11079393      -0.30189285      -8.72231763       0.85395564
 C              9.26140000       5.31910000       9.98455000       0.21894396       0.17831638       0.19404500      -8.72539200       0.85397430
 C             11.49086000       6.55105000       8.69835000       0.02236985      -0.01956049       0.33492624      -8.72143766       0.85409401
 C             11.88928000       7.64325000       7.82994000       0.12615160       0.23515352       0.05211903      -8.72090347       0.85407944
 C             11.39574000       8.13108000      10.59273000       0.10674918       0.24997690      -0.12001700      -8.72501810       0.85402301
 C             11.78269000       9.18516000       9.75574000      -0.06486465      -0.22903591       0.21839888      -8.72693077       0.85397913
 C             12.03279000       8.93571000       8.34690000       0.06351857      -0.28188012      -0.11302636      -8.72276109       0.85401390
 C              9.74533000      10.63990000       6.00027000      -0.11346588       0.25907532       0.13100261      -8.72479548       0.85398045
 C             10.93620000       9.88519000       6.34702000       0.17194112       0.04819849       0.26576166      -8.72436170       0.85384544
 C             11.54502000      10.07699000       7.59304000      -0.05667230      -0.01627671      -0.26504303      -8.72540731       0.85397820
 C              9.20974000      11.55982000       6.90925000       0.10491529      -0.12751781      -0.23929679      -8.72344778       0.85401128
 C              6.92189000      10.79886000       6.37217000       0.15010915       0.25731282       0.10786470      -8.72658895       0.85416025
 C              7.47719000       9.84434000       5.42897000       0.27874271       0.01058381      -0.08492254      -8.72072003       0.85399212
 C              8.86285000       9.76560000       5.24659000      -0.28549114       0.06564888      -0.01416809      -8.72589196       0.85396489
 C              7.77145000      11.64456000       7.09627000      -0.22380255      -0.17690523      -0.19243982      -8.72582022       0.85396044
 C              6.42112000      11.28960000       9.13514000       0.22359842       0.20054696      -0.12260421      -8.72518454       0.85404620
 C              5.54173000      10.41268000       8.38235000      -0.02056130       0.01844639      -0.33391181      -8.72156925       0.85409674
 C              5.78360000      10.17405000       7.02416000      -0.08929838       0.11042675       0.30671275      -8.72237819       0.85396315
 C              7.51683000      11.89289000       8.50490000      -0.32823101      -0.08621301       0.14966618      -8.72506565       0.85400301
 C              8.93558000      11.43467000      10.47645000      -0.00035456       0.16380305      -0.29717068      -8.72212112       0.85381398
 C              7.80046000      10.80795000      11.12755000      -0.35590076       0.03078242      -0.06851655      -8.72580840       0.85403666
 C              6.56458000      10.73974000      10.47227000       0.26856690       0.03132121       0.18070337      -8.72510041       0.85393602
 C              8.79593000      11.96360000       9.18735000       0.05230302      -0.03581592       0.30939329      -8.72349984       0.85397361
 C             10.98991000      11.03123000       8.53658000      -0.18491548       0.21703144      -0.06720401      -8.72220080       0.85394506
 C             11.13547000      10.48148000       9.87290000      -0.16361421       0.04829519       0.22772375      -8.72520944       0.85398101
 C             10.12566000      10.67705000      10.82237000       0.28899242      -0.01640947      -0.13757233      -8.72728012       0.85408165
 C              9.84135000      11.75643000       8.20170000       0.29248264      -0.03322382       0.03761826      -8.72160955       0.85408118
