      60
 Properties=species:S:1:pos:R:3:forces:R:3:local_energy:R:1:hirshfeld_v:R:1 Lattice="18.0000000000       0.0000000000    0.0000000000    0.0000000000   18.0000000000    0.0000000000    0.0000000000    0.0000000000   18.0000000000" energy=-531.360288 virial="1.87605768           -0.29654413      0.02523268     -0.29654413      1.65078450      0.08621063      0.02523268      0.08621063      1.62107386" stress="-0.00032168           0.00005085     -0.00000433      0.00005085     -0.00028306     -0.00001478     -0.00000433     -0.00001478     -0.00027796" volume=5832.000000
 C              7.28766000       6.32384000      11.08071000       0.10436467      -0.25250523      -0.11643903      -8.85677838       0.85398012
 C              8.17010000       7.19820000      11.83431000       0.26813673      -0.06861784       0.02228672      -8.85790013       0.85395875
 C              7.82312000       5.40379000      10.17174000      -0.09986437       0.11213105       0.23124537      -8.85556288       0.85401314
 C              9.55575000       7.11947000      11.65181000      -0.26165375      -0.01638383       0.08895940      -8.85276651       0.85399506
 C             10.34747000       8.33446000      11.57854000      -0.05453492       0.28140210       0.10059476      -8.85679704       0.85408954
 C              7.52513000       8.49407000      11.94969000       0.12990773       0.24372035       0.07165697      -8.85309404       0.85396964
 C              8.28815000       9.66528000      11.88021000      -0.16225081      -0.20868985       0.09464357      -8.85506951       0.85397520
 C              9.72519000       9.58294000      11.69074000       0.16692208      -0.18425791       0.04109997      -8.85292642       0.85408450
 C              6.04281000       5.93248000       8.54449000       0.16675714      -0.21300843       0.06197251      -8.85424347       0.85394107
 C              5.48781000       6.88671000       9.48799000       0.04426388       0.01222550       0.25345475      -8.85739960       0.85397162
 C              7.19130000       5.20716000       8.87936000      -0.27861485       0.01900369      -0.03284883      -8.85369341       0.85407920
 C              6.09683000       7.07853000      10.73395000      -0.17295125      -0.04914204      -0.24835247      -8.85636234       0.85384843
 C              6.24545000       8.42128000      11.26831000      -0.17680677       0.23174239      -0.07469547      -8.85727705       0.85404745
 C              5.00000000       8.02796000       8.73412000      -0.07241760       0.26529128       0.10526645      -8.85479146       0.85401308
 C              5.14341000       9.32046000       9.25092000      -0.12927668      -0.21593864      -0.04471334      -8.85288441       0.85408342
 C              5.77472000       9.52231000      10.54328000       0.03952176      -0.21673600       0.19828584      -8.85665974       0.85401938
 C              8.09699000       5.52910000       6.60450000      -0.00189300      -0.16324654       0.27822522      -8.85425344       0.85381601
 C              6.90696000       6.28678000       6.25862000      -0.27710793       0.00914738       0.12043177      -8.85921480       0.85407565
 C              8.23661000       5.00000000       7.89356000      -0.04984635       0.02459341      -0.29479911      -8.85555681       0.85397476
 C              5.89729000       6.48231000       7.20819000       0.14512931      -0.05021668      -0.21943828      -8.85725965       0.85397937
 C              5.25014000       7.77861000       7.32528000       0.05435952       0.21559026      -0.21124481      -8.85894709       0.85397970
 C              7.30750000       7.38081000       5.39018000      -0.16596494       0.18421819      -0.04172675      -8.85288264       0.85407898
 C              6.68539000       8.62933000       5.50232000       0.05338112      -0.28077484      -0.10106619      -8.85686749       0.85409230
 C              5.63711000       8.83263000       6.48814000      -0.10615841      -0.23620276       0.10639003      -8.85694525       0.85402605
 C             10.61144000       5.67417000       7.94558000      -0.20660271      -0.19919796       0.11478239      -8.85727246       0.85404640
 C             10.46803000       6.22407000       6.60851000      -0.24728557      -0.03547720      -0.17446814      -8.85701477       0.85392756
 C              9.51581000       5.07072000       8.57587000       0.31742083       0.07415910      -0.14182877      -8.85719150       0.85400528
 C              9.23212000       6.15584000       5.95340000       0.34049444      -0.03696083       0.05438125      -8.85774941       0.85403410
 C              8.74452000       7.29848000       5.20075000       0.16457015       0.21151347      -0.09527772      -8.85508898       0.85397518
 C             11.25804000       7.44140000       6.53754000      -0.03839019       0.21608865      -0.19752859      -8.85673065       0.85401177
 C             10.78743000       8.54244000       5.81255000       0.17637122      -0.22998466       0.07404930      -8.85724537       0.85404610
 C              9.50772000       8.46964000       5.13124000      -0.13202421      -0.24339288      -0.07148275      -8.85316121       0.85397400
 C             10.11096000       6.16490000      10.70855000      -0.13711442      -0.25000496      -0.09406475      -8.85864332       0.85416549
 C             11.24922000       6.78972000      10.05652000       0.08868600      -0.11083782      -0.28207389      -8.85433897       0.85395653
 C              9.26140000       5.31910000       9.98455000       0.21320359       0.16091795       0.18532406      -8.85781910       0.85396393
 C             11.49086000       6.55105000       8.69835000       0.03036040      -0.02562162       0.31845149      -8.85347717       0.85409401
 C             11.88928000       7.64325000       7.82994000       0.12986270       0.21796801       0.04432045      -8.85290992       0.85407944
 C             11.39574000       8.13108000      10.59273000       0.10658912       0.23641124      -0.10550882      -8.85702876       0.85402301
 C             11.78269000       9.18516000       9.75574000      -0.05398766      -0.21419222       0.20979516      -8.85896989       0.85397913
 C             12.03279000       8.93571000       8.34690000       0.07160194      -0.26460804      -0.10668305      -8.85479683       0.85401390
 C              9.74533000      10.63990000       6.00027000      -0.10466406       0.25108161       0.11507413      -8.85682001       0.85398045
 C             10.93620000       9.88519000       6.34702000       0.16859449       0.04837775       0.24565052      -8.85640861       0.85384544
 C             11.54502000      10.07699000       7.59304000      -0.04376149      -0.01152375      -0.25113376      -8.85741988       0.85397819
 C              9.20974000      11.55982000       6.90925000       0.09918489      -0.11072685      -0.23077987      -8.85546085       0.85401128
 C              6.92189000      10.79886000       6.37217000       0.13680360       0.25054848       0.09491400      -8.85859930       0.85416025
 C              7.47719000       9.84434000       5.42897000       0.25944213       0.01397209      -0.08815400      -8.85275657       0.85399212
 C              8.86285000       9.76560000       5.24659000      -0.26731649       0.06730285      -0.02214063      -8.85792099       0.85396489
 C              7.77145000      11.64456000       7.09627000      -0.21424072      -0.16045535      -0.18585952      -8.85787308       0.85396044
 C              6.42112000      11.28960000       9.13514000       0.20613166       0.19778832      -0.11336845      -8.85721059       0.85404620
 C              5.54173000      10.41268000       8.38235000      -0.02842252       0.02457114      -0.31752555      -8.85360854       0.85409674
 C              5.78360000      10.17405000       7.02416000      -0.09107557       0.11059182       0.28676280      -8.85444349       0.85396315
 C              7.51683000      11.89289000       8.50490000      -0.31619444      -0.07257900       0.14147749      -8.85710895       0.85400301
 C              8.93558000      11.43467000      10.47645000       0.00220610       0.16237400      -0.27724754      -8.85418145       0.85381398
 C              7.80046000      10.80795000      11.12755000      -0.34146166       0.03567457      -0.05589059      -8.85782902       0.85403666
 C              6.56458000      10.73974000      10.47227000       0.24917525       0.03416840       0.17611018      -8.85713765       0.85393602
 C              8.79593000      11.96360000       9.18735000       0.05122326      -0.02326790       0.29438333      -8.85552475       0.85397361
 C             10.98991000      11.03123000       8.53658000      -0.16622133       0.21233294      -0.06287875      -8.85424821       0.85394506
 C             11.13547000      10.48148000       9.87290000      -0.14633430       0.04920081       0.21805250      -8.85724611       0.85398101
 C             10.12566000      10.67705000      10.82237000       0.27927133      -0.01081927      -0.12123999      -8.85929834       0.85408165
 C              9.84135000      11.75643000       8.20170000       0.28050197      -0.01873787       0.03241699      -8.85361976       0.85408118
