      60
 Properties=species:S:1:pos:R:3:forces:R:3:local_energy:R:1:hirshfeld_v:R:1 Lattice="50.0000000000       0.0000000000    0.0000000000    0.0000000000   50.0000000000    0.0000000000    0.0000000000    0.0000000000   50.0000000000" energy=-526.831672 virial="1.87604665           -0.29654412      0.02523269     -0.29654412      1.65077358      0.08621060      0.02523269      0.08621060      1.62106285" stress="-0.00001501           0.00000237     -0.00000020      0.00000237     -0.00001321     -0.00000069     -0.00000020     -0.00000069     -0.00001297" volume=125000.000000
 C              7.28766000       6.32384000      11.08071000  194790.51944526  242237.67647454      -0.21627658      -8.77042222       0.85398012
 C              8.17010000       7.19820000      11.83431000       0.26720015   85211.76373323      -0.11592109      -8.77368403       0.85395875
 C              7.82312000       5.40379000      10.17174000  370777.04254354  208482.47991211       0.16548791      -8.76993584       0.85401314
 C              9.55575000       7.11947000      11.65181000      -0.29588250   81817.46730976      -0.04359868      -8.77051716       0.85399506
 C             10.34747000       8.33446000      11.57854000      -0.13041550       0.28057318      -0.04419454      -8.77997025       0.85408954
 C              7.52513000       8.49407000      11.94969000   83972.34368960       0.23314423      -0.08568491      -8.77155014       0.85396964
 C              8.28815000       9.66528000      11.88021000  554417.52904060      -0.24610142      -0.06250158      -8.77713297       0.85397520
 C              9.72519000       9.58294000      11.69074000       0.12045006      -0.21948341      -0.11139292      -8.77773539       0.85408450
 C              6.04281000       5.93248000       8.54449000  228141.58015779  218748.01510719       0.05261458      -8.76935175       0.85394107
 C              5.48781000       6.88671000       9.48799000  187867.14132839   93219.87147303       0.20921989      -8.77261538       0.85397162
 C              7.19130000       5.20716000       8.87936000  535449.12843419  203963.12771424      -0.05371043      -8.76951198       0.85407920
 C              6.09683000       7.07853000      10.73395000  231389.49773948  115281.63487244      -0.34089160      -8.77074028       0.85384843
 C              6.24545000       8.42128000      11.26831000  168896.41419284       0.23102539      -0.20113903      -8.77523435       0.85404744
 C              5.00000000       8.02796000       8.73412000  139109.70246619       0.26432653       0.08982680      -8.77480334       0.85401308
 C              5.14341000       9.32046000       9.25092000  135688.81612074      -0.22991341      -0.08379756      -8.77632738       0.85408342
 C              5.77472000       9.52231000      10.54328000  121686.26628275      -0.24584713       0.10324750      -8.77821387       0.85401938
 C              8.09699000       5.52910000       6.60450000  122614.32724826  173609.82264176  250276.88691663      -8.77426023       0.85381601
 C              6.90696000       6.28678000       6.25862000  257261.14952369  102017.07088320  191942.96565794      -8.77944761       0.85407565
 C              8.23661000       5.00000000       7.89356000  149847.63056015  189151.06956906      81.34237886      -8.77396963       0.85397476
 C              5.89729000       6.48231000       7.20819000  155542.38989398  117768.21659247  625076.66559388      -8.77470480       0.85397937
 C              5.25014000       7.77861000       7.32528000  132247.36179441   37663.86925004  476627.50745357      -8.77938859       0.85397970
 C              7.30750000       7.38081000       5.39018000  153944.01747103   48730.26746340  142968.13736481      -8.77730060       0.85407898
 C              6.68539000       8.62933000       5.50232000   98005.36695587   68873.06528482  142305.92498284      -8.78341951       0.85409230
 C              5.63711000       8.83263000       6.48814000  136639.76537098      81.40057429  132475.02185686      -8.78139073       0.85402605
 C             10.61144000       5.67417000       7.94558000      -0.28234540  185258.49046197  584946.96676117      -8.77785182       0.85404640
 C             10.46803000       6.22407000       6.60851000      -0.32511656  100630.65659728  292573.77946830      -8.77998263       0.85392756
 C              9.51581000       5.07072000       8.57587000       0.29804309  174831.18368487      81.49479211      -8.77511456       0.85400528
 C              9.23212000       6.15584000       5.95340000       0.32046034  100578.19398536  187718.33865576      -8.78011688       0.85403410
 C              8.74452000       7.29848000       5.20075000       0.08807469   50378.00546338  142405.73047160      -8.78058340       0.85397518
 C             11.25804000       7.44140000       6.53754000      -0.16516931   48103.78872984  223360.71037568      -8.78445724       0.85401177
 C             10.78743000       8.54244000       5.81255000       0.07178681  209230.26151483  126101.30982718      -8.78731501       0.85404610
 C              9.50772000       8.46964000       5.13124000      -0.17259814  270010.93590399  134280.20037517      -8.78187406       0.85397400
 C             10.11096000       6.16490000      10.70855000      -0.18936100  214348.86770520      -0.18256863      -8.77554870       0.85416550
 C             11.24922000       6.78972000      10.05652000      -0.01737756   95669.39254147      -0.35264517      -8.77580017       0.85395653
 C              9.26140000       5.31910000       9.98455000       0.01797253  181730.77600787       0.12497673      -8.77341231       0.85396393
 C             11.49086000       6.55105000       8.69835000      -0.08884886   94178.07808968       0.30757426      -8.77662444       0.85409401
 C             11.88928000       7.64325000       7.82994000      -0.02310712   39638.11331981  180487.57358635      -8.78051826       0.85407944
 C             11.39574000       8.13108000      10.59273000      -0.01884177       0.23560165      -0.20642160      -8.78164379       0.85402302
 C             11.78269000       9.18516000       9.75574000      -0.19986984      -0.30687894       0.14772320      -8.78623809       0.85397913
 C             12.03279000       8.93571000       8.34690000      -0.08968390      81.37228054      81.52980057      -8.78347167       0.85401390
 C              9.74533000      10.63990000       6.00027000      -0.15940778       0.16580179  138441.83679074      -8.79113688       0.85398045
 C             10.93620000       9.88519000       6.34702000       0.05031154      -0.00276963  109638.15484600      -8.78887559       0.85384544
 C             11.54502000      10.07699000       7.59304000      -0.19177268      -0.07095740  498986.18367976      -8.78928772       0.85397820
 C              9.20974000      11.55982000       6.90925000       0.07451577      -0.24509577  365611.85257561      -8.79223842       0.85401128
 C              6.92189000      10.79886000       6.37217000   88418.65851064       0.16257855  138885.36892009      -8.79103816       0.85416025
 C              7.47719000       9.84434000       5.42897000   61065.92903213      -0.03271531  129576.08939819      -8.78323389       0.85399212
 C              8.86285000       9.76560000       5.24659000      81.36961974       0.02466386  125366.48905888      -8.78924069       0.85396489
 C              7.77145000      11.64456000       7.09627000  306034.40515911      -0.29384345  394130.61228314      -8.79348537       0.85396044
 C              6.42112000      11.28960000       9.13514000   92830.38474171       0.08795580      -0.15104410      -8.78659796       0.85404620
 C              5.54173000      10.41268000       8.38235000  113063.70315023      -0.04451378      81.31949854      -8.78082690       0.85409674
 C              5.78360000      10.17405000       7.02416000  117772.91422333       0.05335220  103058.94217070      -8.78247857       0.85396315
 C              7.51683000      11.89289000       8.50490000  317849.20598070      -0.21499241       0.13499898      -8.79117561       0.85400301
 C              8.93558000      11.43467000      10.47645000      -0.01138996       0.04135127      -0.37966515      -8.78374377       0.85381398
 C              7.80046000      10.80795000      11.12755000  483357.45720934      -0.05356760      -0.18623818      -8.78246888       0.85403666
 C              6.56458000      10.73974000      10.47227000   83068.60136051      -0.05109797       0.07787227      -8.78169890       0.85393602
 C              8.79593000      11.96360000       9.18735000      -0.01018881      -0.17285991       0.25736663      -8.78988420       0.85397361
 C             10.98991000      11.03123000       8.53658000      -0.28425213       0.10900738      81.57350826      -8.78773613       0.85394506
 C             11.13547000      10.48148000       9.87290000      -0.26930675      -0.02741192       0.14663586      -8.78669837       0.85398101
 C             10.12566000      10.67705000      10.82237000       0.21028457      -0.09930990      -0.24133582      -8.78751417       0.85408165
 C              9.84135000      11.75643000       8.20170000       0.22767563      -0.16393508  892998.00061844      -8.79013088       0.85408118
