     125
 Properties=species:S:1:pos:R:3:forces:R:3:local_energy:R:1:hirshfeld_v:R:1 Lattice="9.1075620000        0.0000000000    0.0000000000    0.0000000000    9.1075620000    0.0000000000    0.0000000000    0.0000000000    9.1075620000" energy=-970.984754 virial="188.19717509         17.83754882      2.58424494     17.83754882    203.98105081    -30.09435750      2.58424494    -30.09435750    185.86583351" stress="-0.24911891          -0.02361178     -0.00342080     -0.02361178     -0.27001222      0.03983627     -0.00342080      0.03983627     -0.24603288" volume=755.451189
 C              8.35934846       3.10682619       2.98379214      -1.45851491       0.90798320      -1.97665655      -7.99936948       0.91770678
 C              5.91582600       0.89333343       3.67235115      -5.55967261       3.12235939      -6.19867736      -7.95715212       0.92138203
 C              5.96669174       4.33999920       0.28897383       5.29492020       1.13785232       4.51230013      -8.52652995       0.91693579
 C              6.75613521       8.63649157       1.53293019       0.41012414      -3.49376698       3.64425505      -8.69232098       0.91447894
 C              5.84463219       6.01508932       0.81335993      -5.20297331      -3.13694315       3.41359681      -6.67991718       0.91954298
 C              8.63925116       0.96398990       5.59148751       3.71413824       3.88170950       8.19466860      -8.14591628       0.91705437
 C              5.34793308       6.63465855       2.07477548      -4.62829260       0.84618797       0.27006543      -7.98934444       0.91808636
 C              2.65213116       1.97904590       3.77758903      -2.34134239       0.74748888       1.41425707      -8.33760073       0.91008404
 C              6.41502969       0.50814731       4.91399418      -0.24245353      -2.81277637      -0.01193577      -6.89944542       0.90956352
 C              4.18430542       0.13081191       0.53060656      -6.82548204      -3.16700474       4.34231162      -6.41291031       0.90775100
 C              1.20501242       7.52252745       7.85611923      -1.19734399       6.67290789       2.92216239      -7.75979102       0.91359786
 C              2.38661841       0.00142989       4.84370202       8.13648584      -3.35919801       0.69711507      -6.98603666       0.91719801
 C              6.86508898       6.60882950       0.31249867      10.46980205       6.59070226       0.34975299      -7.03895880       0.92542595
 C              3.19257389       2.97317272       0.49341128      -2.23308122       1.80171615      -5.17951590      -6.27528664       0.91088222
 C              7.70704665       3.94912996       0.59706444      -2.27638817       3.21480466      -0.00629195      -7.56958218       0.91546613
 C              8.07495573       8.07008318       3.74463787       1.39323962      -0.41804101      -0.33874852      -7.31601283       0.91900842
 C              2.24602497       1.28535023       5.23178435      -1.86736538       4.81151804      -1.54499006      -8.19978385       0.91412362
 C              6.52342790       7.75507083       6.75200949       4.28008953       0.83085913      -0.94496843      -8.38040696       0.91749655
 C              2.11896537       8.02249617       5.81112547       1.60746122       2.07205904       4.32780414      -7.65500992       0.91375505
 C              3.30383187       7.51181695       3.36561757      -4.48071853      -2.13876883       1.09140085      -6.69654962       0.91395174
 C              6.90350467       5.31816046       6.46059483       6.13406987       3.27943930      -2.16961245      -8.80063208       0.91459040
 C              6.04355045       5.39654014       3.94453975      -3.10531510      -1.50773081      -3.97815944      -8.26638064       0.91608046
 C              6.07887869       0.00795090       6.24465453      -0.72027919      -2.65541601      -0.51400756      -8.07409320       0.91519879
 C              3.89412939       4.19728370       0.85005430       6.80482308      -0.97154374       4.84336183      -8.05362695       0.91670630
 C              9.05672359       7.43020409       8.49744642     -11.44955266      -0.70524648      -1.78477556      -8.04130665       0.91632139
 C              5.19159267       3.42395150       1.18924723      -3.88834339       1.46651684      -8.36679837      -7.92572737       0.91489599
 C              7.26396376       2.29495990       7.54791022      -3.75228580       2.85139383      -4.40509738      -8.19716500       0.90784990
 C              8.91894439       8.75143811       6.25655811      -5.46778921       3.35882200      -0.56150335      -8.57191805       0.90824935
 C              0.16529314       0.80755841       2.42479731       2.14373678      -2.40507368       7.68062847      -6.62314794       0.91635446
 C              6.94731205       0.76128289       2.30708207      -1.59282601       1.94202681       4.54432042      -8.62956961       0.91818049
 C              1.77676695       5.63142417       8.32613318       3.41010857      -0.60154631      -4.25662893      -7.20743163       0.90725357
 C              3.86072285       8.54635403       4.19283921       0.19766355      -2.47092906      -1.20798130      -8.73341917       0.90733816
 C              3.51536410       8.04354375       6.39073072      -0.90230928      -3.17355367       2.35378608      -7.60059192       0.91708477
 C              5.47101268       7.02361520       7.62841196      -1.08413602      -0.23833068       1.06323466      -8.68526273       0.91610341
 C              8.41016865       2.14938463       6.70108000       3.22516961       0.12987060       0.89142528      -7.26891006       0.91369369
 C              6.27904468       6.66750953       4.54184099       0.12034512       3.99499833       6.40674722      -8.09989900       0.91747453
 C              0.25349988       5.27834220       6.12123796       1.10000290      -3.12855035       9.25208197      -7.00903134       0.92445145
 C              1.33707207       8.72950710       2.37445070      -2.60186915       3.23770750      -1.45474598      -7.05565380       0.90813773
 C              5.09368638       0.88935343       7.48541413       3.87933891      -0.28593221       2.71379913      -7.15295496       0.91065999
 C              8.97522002       3.01991273       5.77250030       9.46775895       2.56723164       0.25997122      -7.87989886       0.92008991
 C              7.63624447       7.49841973       1.27248124       0.56302536      -1.55454709       4.60886153      -8.10022179       0.92818553
 C              7.67297526       1.27919351       4.60898193      -1.37703714      -1.20976388      -2.78373511      -8.93829836       0.91388083
 C              6.32874465       8.78495394       0.18031151      -6.11598677       0.38333404       3.35131781      -8.37268569       0.91587786
 C              1.51064399       4.52405392       8.80993598      -1.93721702      -5.30411912       3.68676104      -6.62798434       0.91602531
 C              4.98173623       0.02755948       3.08614292      -8.98063950       0.11690280       0.06829298      -8.24010294       0.91515887
 C              2.11620578       7.64741945       0.08454550       4.20316390       5.22232402      -6.35720219      -8.15472477       0.90608786
 C              0.49068812       2.22403021       2.50783095      -8.48927438       5.71869751       1.70983043      -8.57096074       0.91752481
 C              8.04015573       0.56145387       3.27396817       2.59570938      -0.70026426       1.30538904      -8.78698301       0.91427825
 C              1.57107266       7.65272005       3.24220100       5.19392448       3.68828332       4.43443793      -8.53886658       0.90789386
 C              3.12226351       1.75595617       2.36408630       1.23221310      -1.27944186       1.81935529      -7.42500937       0.90960027
 C              5.96609064       2.49327707       3.59044684      -6.69498656      -3.70682201       1.94576443      -8.49754012       0.91211446
 C              1.11819914       3.20565235       1.64755797       6.69731756      -2.33392575      -6.05021667      -8.42153035       0.91623020
 C              1.09592204       5.43527460       2.13277244       3.29405204       1.02070201       3.30838388      -7.77944536       0.90600489
 C              7.21359894       6.68913088       5.68393837      -3.97569156       0.24434670       8.56379768      -8.29311139       0.91437309
 C              3.16535139       4.56323465       3.26716482      -4.40355326      -4.40721754      -4.09197339      -7.10083900       0.92426688
 C              7.25825332       2.54969841       3.93933022      15.35543589      -1.80279257       5.61654656      -6.93107938       0.92091154
 C              6.66485012       4.13365827       5.62837313      -0.25921907      -0.25195704       6.54796811      -8.00794374       0.91294311
 C              5.88403151       5.61381925       7.50442161       1.10034588       5.78062773      -6.16123424      -7.17553639       0.91331743
 C              1.02999240       6.29921793       7.43802749       2.71716610      -5.42302155      -8.86559218      -6.46643791       0.91777022
 C              3.79428319       3.70562107       6.11882445     -12.19145856       5.55959284       0.35563839      -6.32833238       0.91304506
 C              5.92161841       8.03262378       2.53539954      -5.40764840       0.41316700       0.74835519      -8.44752378       0.91889163
 C              2.67925348       3.67378104       8.37871114      -4.13530914      -1.66740319      -4.26477179      -8.93149122       0.91590165
 C              5.85097106       7.47756341       9.01444629      -5.96693558       1.51589514      -7.84980737      -8.07858440       0.91876870
 C              5.92308473       3.46386995       2.31613498       4.91827215      -1.06721610       5.84023996      -7.04170325       0.91835521
 C              8.50695472       6.72995097       5.20322303       3.27558240       3.41903165      -1.76632280      -7.92378347       0.91264899
 C              4.01168069       0.75493492       2.35258345       1.23246190      -0.45010548      -8.56141443      -6.38318921       0.90816303
 C              1.64661078       0.95836143       7.34550376       0.01467492       0.90132490       3.56091816      -7.66629883       0.90584223
 C              4.84733594       2.96443857       6.12668428      -0.66472362     -11.89924242       4.82290391      -7.17522099       0.91630374
 C              3.44345079       8.21163291       8.86840653       0.65349245       5.76409754       0.25980833      -6.52610426       0.91738647
 C              8.23754392       5.16237562       7.16385344       0.27283496       1.48230253       0.56435344      -6.71772595       0.91620764
 C              2.42198307       3.36186525       6.77456892       4.15020101       0.87826996       0.86918516      -8.27512081       0.90854113
 C              0.11127619       5.58427432       4.77957568       0.83016194       3.97926476      -3.40153598      -7.28457567       0.91581915
 C              9.06275279       0.76437946       1.17830905       1.96054791       0.95878572      -6.83580817      -6.42998182       0.92068389
 C              9.10299911       7.68381326       0.87990889      -0.57320813      -5.53098436      -3.89836452      -8.08731537       0.91253125
 C              5.54187862       4.52294280       8.06053846      -7.96725248      -5.95125871       0.47428283      -6.96737482       0.91120540
 C              3.68438224       3.22897682       3.84146036       0.67953577      -1.93824352      -0.19866033      -7.56541444       0.90552194
 C              8.23352749       6.23672184       8.39420310      -2.24695386      -2.76645279      -2.07916366      -7.51419495       0.92451079
 C              3.61444527       5.24812331       2.01487505       5.75519839      -0.56845042       6.52503677      -7.07935198       0.92592906
 C              4.21163722       1.60290359       6.78384042      -5.20978104       6.15818093      -2.52535388      -7.78689687       0.89853181
 C              4.17011584       4.81494945       5.37243243      -2.36248451       7.09104944       3.59819229      -8.53431932       0.91659093
 C              7.32645985       3.37193822       1.91190495       1.43749851      -1.05336171      -1.57107788      -8.39127411       0.91381689
 C              7.33047629       5.53033934       3.30542569       0.87501919      -2.76940616      -1.20411643      -7.37267883       0.91370517
 C              7.73662801       6.47596839       2.42258417       5.43678490       3.01795658      -1.37487557      -7.14588322       0.91687302
 C              8.50159036       5.28158449       0.26305371       0.15289808      -1.11605222       6.29200960      -6.99037789       0.92297533
 C              0.79296810       1.66010819       5.18723926      -0.99444272       1.94848774      -6.86500450      -7.97213224       0.91886322
 C              7.93647525       2.49460677       8.82323302       4.92181708       4.45115701      -3.69667462      -7.51309345       0.91708815
 C              6.50414719       1.02782480       7.46172536       4.01630400       0.60035935       1.84747568      -7.93190641       0.91635408
 C              5.18595509       0.84861530       0.01607485       0.06055984       0.74716257      -1.69509217      -7.94584052       0.91180069
 C              3.80803561       6.68118908       7.12702246       4.41664360       4.79138025       4.57827623      -7.81933899       0.91411437
 C              1.36233645       1.06407290       0.67845872      -1.40267897      -4.65439914      -5.08823285      -8.44128534       0.90869583
 C              4.35111953       6.14550050       6.03891471       1.84747177      -8.60581577      -1.93402956      -6.92953501       0.91334506
 C              1.25800022       8.35427555       0.99684088       2.09670766       1.66607901       2.63917609      -7.56116463       0.90911090
 C              2.71035581       1.97185093       6.49862800       1.42335364     -11.41095680       4.97357691      -8.40816351       0.90935708
 C              1.21259902       4.02725463       6.07770381      -3.57951721      -3.82598896       4.63445396      -7.00329100       0.91823402
 C              3.38299480       5.90325757       8.35329193      -3.79695438      -0.22957893      -4.19766820      -9.43623756       0.90758344
 C              1.11688765       1.58986156       8.54461449      -0.95123504       1.14446642      -4.02310156      -6.66729309       0.90742026
 C              1.22007633       2.27733677       3.65607594       2.55997123       0.29464979       7.51059757      -5.87549223       0.91371878
 C              0.41518643       3.90892007       0.46747294       6.21423635      -6.03503664      -5.22922546      -7.83388636       0.92589322
 C              1.28602418       8.25778093       4.62422799       6.05917170      -5.27451009      -5.71115621      -8.17091549       0.91238474
 C              7.94399809       3.51703989       4.79573249      -5.52587741       1.58130428       4.66976948      -8.18018838       0.91353868
 C              5.21852374       6.94733937       5.36344326      -4.45124490      -3.07254353       0.78142949      -6.82586083       0.91660075
 C              6.65334727       8.00104786       4.01803777       1.11338622      -0.59920535      -3.72449580      -8.14962000       0.92282264
 C              2.11505823       4.30851436       2.13534077     -10.33724278       4.22889152       1.79406607      -7.85788711       0.92277129
 C              0.22900054       2.87700598       8.24908321       2.66654054      -1.67546875       4.14649014      -7.79787991       0.92137732
 C              9.06153238       8.06204121       4.97881270      -6.16176525      -4.27959133       2.39295591      -8.20367700       0.91012033
 C              1.69379706       5.65246263       4.36359689      -0.64287280       3.65951150      -0.00303948      -7.45094447       0.91232518
 C              8.34960337       4.78894736       4.01775544       2.02621675      -3.77982598      -2.52830026      -8.10528733       0.90846008
 C              9.07461995       6.02763954       1.54838572      -2.06484197       1.83044422      -3.38484713      -8.01513181       0.91625455
 C              5.48737897       2.02758921       0.81266776       1.68655157       0.62794265      -0.93320190      -7.47032295       0.90984105
 C              5.47575772       4.38452607       4.81812799       0.26804546       0.58545657       0.95771933      -9.08536631       0.91739957
 C              7.98399851       1.25607852       0.49578835      -4.69747870       1.50291859      -7.90530096      -8.60374786       0.91178474
 C              1.28534112       6.33036580       3.15444053       2.77058041      -3.77095089       0.76662639      -7.33724641       0.91089312
 C              3.76680568       6.90565406       1.96595833      -0.29812807      -6.46502979      -2.56133715      -7.77352983       0.91595627
 C              6.01254831       3.39779459       7.04350612       2.70257910      -1.41360020      -4.76583718      -8.89176983       0.90227168
 C              4.90995953       2.91576776       4.61083077       5.20785182       4.24586102      -2.99667984      -8.96447791       0.90776685
 C              4.69083159       8.17017529       5.44941865      -7.22578136       6.56413772       2.14248871      -7.81915468       0.91846891
 C              5.01027022       5.59038549       2.96976649       0.08221062      -2.82210031      -4.56340510      -6.24878815       0.92364771
 C              3.28068955       6.88050808       0.37709860      -0.70821090       2.40950259       0.43926947      -6.98475244       0.91562991
 C              2.29620764       2.19486780       1.29786402      -0.81848773       0.18976175      -1.09496956      -8.94221481       0.91096723
 C              7.86404281       8.19661454       7.50795535       5.19818352       4.11995560       0.72051828      -8.12296368       0.91320667
 C              7.28883651       0.24392783       8.44931296       4.91490936       2.21567733      -2.71437366      -8.39565908       0.90928889
 C              3.00047719       5.42967345       4.57430944       0.59392865       0.52698855      -3.27786721      -7.19744137       0.91017342
 C              6.93939758       1.91383576       1.38696329      -3.18705179      -3.53930127       1.16495538      -8.62363405       0.92330366
 C              1.09663243       8.80526380       6.89768494       8.13679531      -0.93402501       0.79848820      -9.22097385       0.90622559
 C              3.90606030       4.57209631       8.50600753       1.36192306       2.51527089       0.12134185      -8.73809298       0.90958477
