     320
 Properties=species:S:1:pos:R:3:forces:R:3:local_energy:R:1:hirshfeld_v:R:1 Lattice="33.1360000000       0.0000000000    0.0000000000    0.0000000000   41.9200000000    0.0000000000    0.0000000000    0.0000000000   35.0104000000" energy=-178.448578 virial="-322.93361493        -0.00000000     -0.00000001     -0.00000000   -227.87415597     -0.00229834     -0.00000001     -0.00230176   -284.11188884" stress="0.00664041            0.00000000      0.00000000      0.00000000      0.00468572      0.00000005      0.00000000      0.00000005      0.00584213" volume=48631.585436
 P              3.31360000       2.12980608       0.70510946       0.00000000      -0.38175991       0.48595508      -0.55784129       1.01512319
 P              3.31360000      39.78919392       8.04749054      -0.00000000       0.38071533      -0.48641025      -0.55765061       1.01510769
 P              0.00000000       2.13080608       3.67119054      -0.00000554      -0.38081922      -0.48640529      -0.55765057       1.01510768
 P              0.00000000      39.78919392       5.08140946      -0.00000036       0.38071521       0.48641062      -0.55765061       1.01510769
 P              0.00000000      12.61080608       0.70510946      -0.00000000      -0.38071533       0.48641025      -0.55765061       1.01510769
 P              0.00000000       8.34919392       8.04749054      -0.00000000       0.38071533      -0.48641025      -0.55765061       1.01510769
 P              3.31360000      12.61080608       3.67119054      -0.00000000      -0.38071533      -0.48641025      -0.55765061       1.01510769
 P              3.31360000       8.34919392       5.08140946       0.00000000       0.38071533       0.48641025      -0.55765061       1.01510769
 P              3.31360000       2.13080608       9.45770946       0.00000000      -0.38071533       0.48641025      -0.55765061       1.01510769
 P              3.31360000      39.78919392      16.80009054      -0.00000000       0.38071533      -0.48641025      -0.55765061       1.01510769
 P              0.00000000       2.13080608      12.42379054      -0.00000000      -0.38071533      -0.48641025      -0.55765061       1.01510769
 P              0.00000000      39.78919392      13.83400946       0.00000000       0.38071533       0.48641025      -0.55765061       1.01510769
 P              0.00000000      12.61080608       9.45770946      -0.00000000      -0.38071533       0.48641025      -0.55765061       1.01510769
 P              0.00000000       8.34919392      16.80009054      -0.00000000       0.38071533      -0.48641025      -0.55765061       1.01510769
 P              3.31360000      12.61080608      12.42379054      -0.00000000      -0.38071533      -0.48641025      -0.55765061       1.01510769
 P              3.31360000       8.34919392      13.83400946       0.00000000       0.38071533       0.48641025      -0.55765061       1.01510769
 P              3.31360000       2.13080608      18.21030946       0.00000000      -0.38071533       0.48641025      -0.55765061       1.01510769
 P              3.31360000      39.78919392      25.55269054      -0.00000000       0.38071533      -0.48641025      -0.55765061       1.01510769
 P              0.00000000       2.13080608      21.17639054      -0.00000000      -0.38071533      -0.48641025      -0.55765061       1.01510769
 P              0.00000000      39.78919392      22.58660946      -0.00000000       0.38071533       0.48641025      -0.55765061       1.01510769
 P              0.00000000      12.61080608      18.21030946       0.00000000      -0.38071533       0.48641025      -0.55765061       1.01510769
 P              0.00000000       8.34919392      25.55269054      -0.00000000       0.38071533      -0.48641025      -0.55765061       1.01510769
 P              3.31360000      12.61080608      21.17639054      -0.00000000      -0.38071533      -0.48641025      -0.55765061       1.01510769
 P              3.31360000       8.34919392      22.58660946      -0.00000000       0.38071533       0.48641025      -0.55765061       1.01510769
 P              3.31360000       2.13080608      26.96290946      -0.00000000      -0.38071533       0.48641025      -0.55765061       1.01510769
 P              3.31360000      39.78919392      34.30529054      -0.00000000       0.38196808      -0.48595531      -0.55784121       1.01512318
 P              0.00000000       2.13080608      29.92899054      -0.00000000      -0.38071533      -0.48641025      -0.55765061       1.01510769
 P              0.00000000      39.78919392      31.33920946      -0.00000575       0.38071521       0.48640503      -0.55765066       1.01510769
 P              0.00000000      12.61080608      26.96290946      -0.00000000      -0.38071533       0.48641025      -0.55765061       1.01510769
 P              0.00000000       8.34919392      34.30529054      -0.00000000       0.38071533      -0.48641025      -0.55765061       1.01510769
 P              3.31360000      12.61080608      29.92899054      -0.00000000      -0.38071533      -0.48641025      -0.55765061       1.01510769
 P              3.31360000       8.34919392      31.33920946      -0.00000000       0.38071533       0.48641025      -0.55765061       1.01510769
 P              3.31360000      23.09080608       0.70510946       0.00000000      -0.38071533       0.48641025      -0.55765061       1.01510769
 P              3.31360000      18.82919392       8.04749054      -0.00000000       0.38071533      -0.48641025      -0.55765061       1.01510769
 P              0.00000000      23.09080608       3.67119054      -0.00000000      -0.38071533      -0.48641025      -0.55765061       1.01510769
 P              0.00000000      18.82919392       5.08140946      -0.00000000       0.38071533       0.48641025      -0.55765061       1.01510769
 P              0.00000000      33.57080608       0.70510946      -0.00000000      -0.38071533       0.48641025      -0.55765061       1.01510769
 P              0.00000000      29.30919392       8.04749054      -0.00000000       0.38071533      -0.48641025      -0.55765061       1.01510769
 P              3.31360000      33.57080608       3.67119054      -0.00000000      -0.38071533      -0.48641025      -0.55765061       1.01510769
 P              3.31360000      29.30919392       5.08140946       0.00000000       0.38071533       0.48641025      -0.55765061       1.01510769
 P              3.31360000      23.09080608       9.45770946       0.00000000      -0.38071533       0.48641025      -0.55765061       1.01510769
 P              3.31360000      18.82919392      16.80009054      -0.00000000       0.38071533      -0.48641025      -0.55765061       1.01510769
 P              0.00000000      23.09080608      12.42379054      -0.00000000      -0.38071533      -0.48641025      -0.55765061       1.01510769
 P              0.00000000      18.82919392      13.83400946       0.00000000       0.38071533       0.48641025      -0.55765061       1.01510769
 P              0.00000000      33.57080608       9.45770946      -0.00000000      -0.38071533       0.48641025      -0.55765061       1.01510769
 P              0.00000000      29.30919392      16.80009054      -0.00000000       0.38071533      -0.48641025      -0.55765061       1.01510769
 P              3.31360000      33.57080608      12.42379054      -0.00000000      -0.38071533      -0.48641025      -0.55765061       1.01510769
 P              3.31360000      29.30919392      13.83400946       0.00000000       0.38071533       0.48641025      -0.55765061       1.01510769
 P              3.31360000      23.09080608      18.21030946       0.00000000      -0.38071533       0.48641025      -0.55765061       1.01510769
 P              3.31360000      18.82919392      25.55269054      -0.00000000       0.38071533      -0.48641025      -0.55765061       1.01510769
 P              0.00000000      23.09080608      21.17639054      -0.00000000      -0.38071533      -0.48641025      -0.55765061       1.01510769
 P              0.00000000      18.82919392      22.58660946      -0.00000000       0.38071533       0.48641025      -0.55765061       1.01510769
 P              0.00000000      33.57080608      18.21030946       0.00000000      -0.38071533       0.48641025      -0.55765061       1.01510769
 P              0.00000000      29.30919392      25.55269054      -0.00000000       0.38071533      -0.48641025      -0.55765061       1.01510769
 P              3.31360000      33.57080608      21.17639054      -0.00000000      -0.38071533      -0.48641025      -0.55765061       1.01510769
 P              3.31360000      29.30919392      22.58660946      -0.00000000       0.38071533       0.48641025      -0.55765061       1.01510769
 P              3.31360000      23.09080608      26.96290946      -0.00000000      -0.38071533       0.48641025      -0.55765061       1.01510769
 P              3.31360000      18.82919392      34.30529054      -0.00000000       0.38071533      -0.48641025      -0.55765061       1.01510769
 P              0.00000000      23.09080608      29.92899054      -0.00000000      -0.38071533      -0.48641025      -0.55765061       1.01510769
 P              0.00000000      18.82919392      31.33920946      -0.00000000       0.38071533       0.48641025      -0.55765061       1.01510769
 P              0.00000000      33.57080608      26.96290946      -0.00000000      -0.38071533       0.48641025      -0.55765061       1.01510769
 P              0.00000000      29.30919392      34.30529054      -0.00000000       0.38071533      -0.48641025      -0.55765061       1.01510769
 P              3.31360000      33.57080608      29.92899054      -0.00000000      -0.38071533      -0.48641025      -0.55765061       1.01510769
 P              3.31360000      29.30919392      31.33920946      -0.00000000       0.38071533       0.48641025      -0.55765061       1.01510769
 P              9.94080000       2.13080608       0.70510946      -0.00000001      -0.38071528       0.48641026      -0.55765061       1.01510769
 P              9.94080000      39.78919392       8.04749054      -0.00000000       0.38071533      -0.48641025      -0.55765061       1.01510769
 P              6.62720000       2.13080608       3.67119054       0.00000554      -0.38081922      -0.48640529      -0.55765057       1.01510768
 P              6.62720000      39.78919392       5.08140946       0.00000036       0.38071521       0.48641062      -0.55765061       1.01510769
 P              6.62720000      12.61080608       0.70510946       0.00000000      -0.38071533       0.48641025      -0.55765061       1.01510769
 P              6.62720000       8.34919392       8.04749054      -0.00000000       0.38071533      -0.48641025      -0.55765061       1.01510769
 P              9.94080000      12.61080608       3.67119054      -0.00000000      -0.38071533      -0.48641025      -0.55765061       1.01510769
 P              9.94080000       8.34919392       5.08140946       0.00000000       0.38071533       0.48641025      -0.55765061       1.01510769
 P              9.94080000       2.13080608       9.45770946       0.00000000      -0.38071533       0.48641025      -0.55765061       1.01510769
 P              9.94080000      39.78919392      16.80009054      -0.00000000       0.38071533      -0.48641025      -0.55765061       1.01510769
 P              6.62720000       2.13080608      12.42379054      -0.00000000      -0.38071533      -0.48641025      -0.55765061       1.01510769
 P              6.62720000      39.78919392      13.83400946      -0.00000000       0.38071533       0.48641025      -0.55765061       1.01510769
 P              6.62720000      12.61080608       9.45770946       0.00000000      -0.38071533       0.48641025      -0.55765061       1.01510769
 P              6.62720000       8.34919392      16.80009054      -0.00000000       0.38071533      -0.48641025      -0.55765061       1.01510769
 P              9.94080000      12.61080608      12.42379054      -0.00000000      -0.38071533      -0.48641025      -0.55765061       1.01510769
 P              9.94080000       8.34919392      13.83400946      -0.00000000       0.38071533       0.48641025      -0.55765061       1.01510769
 P              9.94080000       2.13080608      18.21030946      -0.00000000      -0.38071533       0.48641025      -0.55765061       1.01510769
 P              9.94080000      39.78919392      25.55269054      -0.00000000       0.38071533      -0.48641025      -0.55765061       1.01510769
 P              6.62720000       2.13080608      21.17639054      -0.00000000      -0.38071533      -0.48641025      -0.55765061       1.01510769
 P              6.62720000      39.78919392      22.58660946      -0.00000000       0.38071533       0.48641025      -0.55765061       1.01510769
 P              6.62720000      12.61080608      18.21030946      -0.00000000      -0.38071533       0.48641025      -0.55765061       1.01510769
 P              6.62720000       8.34919392      25.55269054      -0.00000000       0.38071533      -0.48641025      -0.55765061       1.01510769
 P              9.94080000      12.61080608      21.17639054      -0.00000000      -0.38071533      -0.48641025      -0.55765061       1.01510769
 P              9.94080000       8.34919392      22.58660946      -0.00000000       0.38071533       0.48641025      -0.55765061       1.01510769
 P              9.94080000       2.13080608      26.96290946      -0.00000000      -0.38071533       0.48641025      -0.55765061       1.01510769
 P              9.94080000      39.78919392      34.30529054      -0.00000000       0.38071533      -0.48641025      -0.55765061       1.01510769
 P              6.62720000       2.13080608      29.92899054      -0.00000000      -0.38071533      -0.48641025      -0.55765061       1.01510769
 P              6.62720000      39.78919392      31.33920946       0.00000575       0.38071521       0.48640503      -0.55765066       1.01510769
 P              6.62720000      12.61080608      26.96290946      -0.00000000      -0.38071533       0.48641025      -0.55765061       1.01510769
 P              6.62720000       8.34919392      34.30529054      -0.00000000       0.38071533      -0.48641025      -0.55765061       1.01510769
 P              9.94080000      12.61080608      29.92899054      -0.00000000      -0.38071533      -0.48641025      -0.55765061       1.01510769
 P              9.94080000       8.34919392      31.33920946      -0.00000000       0.38071533       0.48641025      -0.55765061       1.01510769
 P              9.94080000      23.09080608       0.70510946       0.00000000      -0.38071533       0.48641025      -0.55765061       1.01510769
 P              9.94080000      18.82919392       8.04749054      -0.00000000       0.38071533      -0.48641025      -0.55765061       1.01510769
 P              6.62720000      23.09080608       3.67119054      -0.00000000      -0.38071533      -0.48641025      -0.55765061       1.01510769
 P              6.62720000      18.82919392       5.08140946       0.00000000       0.38071533       0.48641025      -0.55765061       1.01510769
 P              6.62720000      33.57080608       0.70510946       0.00000000      -0.38071533       0.48641025      -0.55765061       1.01510769
 P              6.62720000      29.30919392       8.04749054      -0.00000000       0.38071533      -0.48641025      -0.55765061       1.01510769
 P              9.94080000      33.57080608       3.67119054      -0.00000000      -0.38071533      -0.48641025      -0.55765061       1.01510769
 P              9.94080000      29.30919392       5.08140946       0.00000000       0.38071533       0.48641025      -0.55765061       1.01510769
 P              9.94080000      23.09080608       9.45770946       0.00000000      -0.38071533       0.48641025      -0.55765061       1.01510769
 P              9.94080000      18.82919392      16.80009054      -0.00000000       0.38071533      -0.48641025      -0.55765061       1.01510769
 P              6.62720000      23.09080608      12.42379054      -0.00000000      -0.38071533      -0.48641025      -0.55765061       1.01510769
 P              6.62720000      18.82919392      13.83400946      -0.00000000       0.38071533       0.48641025      -0.55765061       1.01510769
 P              6.62720000      33.57080608       9.45770946       0.00000000      -0.38071533       0.48641025      -0.55765061       1.01510769
 P              6.62720000      29.30919392      16.80009054      -0.00000000       0.38071533      -0.48641025      -0.55765061       1.01510769
 P              9.94080000      33.57080608      12.42379054      -0.00000000      -0.38071533      -0.48641025      -0.55765061       1.01510769
 P              9.94080000      29.30919392      13.83400946      -0.00000000       0.38071533       0.48641025      -0.55765061       1.01510769
 P              9.94080000      23.09080608      18.21030946      -0.00000000      -0.38071533       0.48641025      -0.55765061       1.01510769
 P              9.94080000      18.82919392      25.55269054      -0.00000000       0.38071533      -0.48641025      -0.55765061       1.01510769
 P              6.62720000      23.09080608      21.17639054      -0.00000000      -0.38071533      -0.48641025      -0.55765061       1.01510769
 P              6.62720000      18.82919392      22.58660946      -0.00000000       0.38071533       0.48641025      -0.55765061       1.01510769
 P              6.62720000      33.57080608      18.21030946      -0.00000000      -0.38071533       0.48641025      -0.55765061       1.01510769
 P              6.62720000      29.30919392      25.55269054      -0.00000000       0.38071533      -0.48641025      -0.55765061       1.01510769
 P              9.94080000      33.57080608      21.17639054      -0.00000000      -0.38071533      -0.48641025      -0.55765061       1.01510769
 P              9.94080000      29.30919392      22.58660946      -0.00000000       0.38071533       0.48641025      -0.55765061       1.01510769
 P              9.94080000      23.09080608      26.96290946      -0.00000000      -0.38071533       0.48641025      -0.55765061       1.01510769
 P              9.94080000      18.82919392      34.30529054      -0.00000000       0.38071533      -0.48641025      -0.55765061       1.01510769
 P              6.62720000      23.09080608      29.92899054      -0.00000000      -0.38071533      -0.48641025      -0.55765061       1.01510769
 P              6.62720000      18.82919392      31.33920946      -0.00000000       0.38071533       0.48641025      -0.55765061       1.01510769
 P              6.62720000      33.57080608      26.96290946      -0.00000000      -0.38071533       0.48641025      -0.55765061       1.01510769
 P              6.62720000      29.30919392      34.30529054      -0.00000000       0.38071533      -0.48641025      -0.55765061       1.01510769
 P              9.94080000      33.57080608      29.92899054      -0.00000000      -0.38071533      -0.48641025      -0.55765061       1.01510769
 P              9.94080000      29.30919392      31.33920946      -0.00000000       0.38071533       0.48641025      -0.55765061       1.01510769
 P             16.56800000       2.13080608       0.70510946      -0.00000000      -0.38071533       0.48641025      -0.55765061       1.01510769
 P             16.56800000      39.78919392       8.04749054       0.00000000       0.38071533      -0.48641025      -0.55765061       1.01510769
 P             13.25440000       2.13080608       3.67119054      -0.00000000      -0.38071533      -0.48641025      -0.55765061       1.01510769
 P             13.25440000      39.78919392       5.08140946       0.00000000       0.38071533       0.48641025      -0.55765061       1.01510769
 P             13.25440000      12.61080608       0.70510946       0.00000000      -0.38071533       0.48641025      -0.55765061       1.01510769
 P             13.25440000       8.34919392       8.04749054      -0.00000000       0.38071533      -0.48641025      -0.55765061       1.01510769
 P             16.56800000      12.61080608       3.67119054       0.00000000      -0.38071533      -0.48641025      -0.55765061       1.01510769
 P             16.56800000       8.34919392       5.08140946       0.00000000       0.38071533       0.48641025      -0.55765061       1.01510769
 P             16.56800000       2.13080608       9.45770946       0.00000000      -0.38071533       0.48641025      -0.55765061       1.01510769
 P             16.56800000      39.78919392      16.80009054       0.00000000       0.38071533      -0.48641025      -0.55765061       1.01510769
 P             13.25440000       2.13080608      12.42379054      -0.00000000      -0.38071533      -0.48641025      -0.55765061       1.01510769
 P             13.25440000      39.78919392      13.83400946      -0.00000000       0.38071533       0.48641025      -0.55765061       1.01510769
 P             13.25440000      12.61080608       9.45770946       0.00000000      -0.38071533       0.48641025      -0.55765061       1.01510769
 P             13.25440000       8.34919392      16.80009054      -0.00000000       0.38071533      -0.48641025      -0.55765061       1.01510769
 P             16.56800000      12.61080608      12.42379054       0.00000000      -0.38071533      -0.48641025      -0.55765061       1.01510769
 P             16.56800000       8.34919392      13.83400946      -0.00000000       0.38071533       0.48641025      -0.55765061       1.01510769
 P             16.56800000       2.13080608      18.21030946      -0.00000000      -0.38071533       0.48641025      -0.55765061       1.01510769
 P             16.56800000      39.78919392      25.55269054       0.00000000       0.38071533      -0.48641025      -0.55765061       1.01510769
 P             13.25440000       2.13080608      21.17639054      -0.00000000      -0.38071533      -0.48641025      -0.55765061       1.01510769
 P             13.25440000      39.78919392      22.58660946      -0.00000000       0.38071533       0.48641025      -0.55765061       1.01510769
 P             13.25440000      12.61080608      18.21030946      -0.00000000      -0.38071533       0.48641025      -0.55765061       1.01510769
 P             13.25440000       8.34919392      25.55269054      -0.00000000       0.38071533      -0.48641025      -0.55765061       1.01510769
 P             16.56800000      12.61080608      21.17639054       0.00000000      -0.38071533      -0.48641025      -0.55765061       1.01510769
 P             16.56800000       8.34919392      22.58660946       0.00000000       0.38071533       0.48641025      -0.55765061       1.01510769
 P             16.56800000       2.13080608      26.96290946       0.00000000      -0.38071533       0.48641025      -0.55765061       1.01510769
 P             16.56800000      39.78919392      34.30529054       0.00000000       0.38071533      -0.48641025      -0.55765061       1.01510769
 P             13.25440000       2.13080608      29.92899054      -0.00000000      -0.38071533      -0.48641025      -0.55765061       1.01510769
 P             13.25440000      39.78919392      31.33920946      -0.00000000       0.38071533       0.48641025      -0.55765061       1.01510769
 P             13.25440000      12.61080608      26.96290946      -0.00000000      -0.38071533       0.48641025      -0.55765061       1.01510769
 P             13.25440000       8.34919392      34.30529054      -0.00000000       0.38071533      -0.48641025      -0.55765061       1.01510769
 P             16.56800000      12.61080608      29.92899054       0.00000000      -0.38071533      -0.48641025      -0.55765061       1.01510769
 P             16.56800000       8.34919392      31.33920946       0.00000000       0.38071533       0.48641025      -0.55765061       1.01510769
 P             16.56800000      23.09080608       0.70510946      -0.00000000      -0.38071533       0.48641025      -0.55765061       1.01510769
 P             16.56800000      18.82919392       8.04749054       0.00000000       0.38071533      -0.48641025      -0.55765061       1.01510769
 P             13.25440000      23.09080608       3.67119054      -0.00000000      -0.38071533      -0.48641025      -0.55765061       1.01510769
 P             13.25440000      18.82919392       5.08140946       0.00000000       0.38071533       0.48641025      -0.55765061       1.01510769
 P             13.25440000      33.57080608       0.70510946       0.00000000      -0.38071533       0.48641025      -0.55765061       1.01510769
 P             13.25440000      29.30919392       8.04749054      -0.00000000       0.38071533      -0.48641025      -0.55765061       1.01510769
 P             16.56800000      33.57080608       3.67119054       0.00000000      -0.38071533      -0.48641025      -0.55765061       1.01510769
 P             16.56800000      29.30919392       5.08140946       0.00000000       0.38071533       0.48641025      -0.55765061       1.01510769
 P             16.56800000      23.09080608       9.45770946       0.00000000      -0.38071533       0.48641025      -0.55765061       1.01510769
 P             16.56800000      18.82919392      16.80009054       0.00000000       0.38071533      -0.48641025      -0.55765061       1.01510769
 P             13.25440000      23.09080608      12.42379054      -0.00000000      -0.38071533      -0.48641025      -0.55765061       1.01510769
 P             13.25440000      18.82919392      13.83400946      -0.00000000       0.38071533       0.48641025      -0.55765061       1.01510769
 P             13.25440000      33.57080608       9.45770946       0.00000000      -0.38071533       0.48641025      -0.55765061       1.01510769
 P             13.25440000      29.30919392      16.80009054      -0.00000000       0.38071533      -0.48641025      -0.55765061       1.01510769
 P             16.56800000      33.57080608      12.42379054       0.00000000      -0.38071533      -0.48641025      -0.55765061       1.01510769
 P             16.56800000      29.30919392      13.83400946      -0.00000000       0.38071533       0.48641025      -0.55765061       1.01510769
 P             16.56800000      23.09080608      18.21030946      -0.00000000      -0.38071533       0.48641025      -0.55765061       1.01510769
 P             16.56800000      18.82919392      25.55269054       0.00000000       0.38071533      -0.48641025      -0.55765061       1.01510769
 P             13.25440000      23.09080608      21.17639054      -0.00000000      -0.38071533      -0.48641025      -0.55765061       1.01510769
 P             13.25440000      18.82919392      22.58660946      -0.00000000       0.38071533       0.48641025      -0.55765061       1.01510769
 P             13.25440000      33.57080608      18.21030946      -0.00000000      -0.38071533       0.48641025      -0.55765061       1.01510769
 P             13.25440000      29.30919392      25.55269054      -0.00000000       0.38071533      -0.48641025      -0.55765061       1.01510769
 P             16.56800000      33.57080608      21.17639054       0.00000000      -0.38071533      -0.48641025      -0.55765061       1.01510769
 P             16.56800000      29.30919392      22.58660946       0.00000000       0.38071533       0.48641025      -0.55765061       1.01510769
 P             16.56800000      23.09080608      26.96290946       0.00000000      -0.38071533       0.48641025      -0.55765061       1.01510769
 P             16.56800000      18.82919392      34.30529054       0.00000000       0.38071533      -0.48641025      -0.55765061       1.01510769
 P             13.25440000      23.09080608      29.92899054      -0.00000000      -0.38071533      -0.48641025      -0.55765061       1.01510769
 P             13.25440000      18.82919392      31.33920946      -0.00000000       0.38071533       0.48641025      -0.55765061       1.01510769
 P             13.25440000      33.57080608      26.96290946      -0.00000000      -0.38071533       0.48641025      -0.55765061       1.01510769
 P             13.25440000      29.30919392      34.30529054      -0.00000000       0.38071533      -0.48641025      -0.55765061       1.01510769
 P             16.56800000      33.57080608      29.92899054       0.00000000      -0.38071533      -0.48641025      -0.55765061       1.01510769
 P             16.56800000      29.30919392      31.33920946       0.00000000       0.38071533       0.48641025      -0.55765061       1.01510769
 P             23.19520000       2.13080608       0.70510946       0.00000000      -0.38071533       0.48641025      -0.55765061       1.01510769
 P             23.19520000      39.78919392       8.04749054      -0.00000000       0.38071533      -0.48641025      -0.55765061       1.01510769
 P             19.88160000       2.13080608       3.67119054      -0.00000000      -0.38071533      -0.48641025      -0.55765061       1.01510769
 P             19.88160000      39.78919392       5.08140946      -0.00000000       0.38071533       0.48641025      -0.55765061       1.01510769
 P             19.88160000      12.61080608       0.70510946       0.00000000      -0.38071533       0.48641025      -0.55765061       1.01510769
 P             19.88160000       8.34919392       8.04749054      -0.00000000       0.38071533      -0.48641025      -0.55765061       1.01510769
 P             23.19520000      12.61080608       3.67119054      -0.00000000      -0.38071533      -0.48641025      -0.55765061       1.01510769
 P             23.19520000       8.34919392       5.08140946       0.00000000       0.38071533       0.48641025      -0.55765061       1.01510769
 P             23.19520000       2.13080608       9.45770946       0.00000000      -0.38071533       0.48641025      -0.55765061       1.01510769