      60
 Properties=species:S:1:pos:R:3:forces:R:3:local_energy:R:1:hirshfeld_v:R:1 Lattice="200.0000000000      0.0000000000    0.0000000000    0.0000000000  200.0000000000    0.0000000000    0.0000000000    0.0000000000  200.0000000000" energy=-535.831039 virial="-0.36262334          -0.17973803      0.04366863     -0.17973803     -0.67354439      0.01270622      0.04366863      0.01270622     -0.43647927" stress="0.00000005            0.00000002     -0.00000001      0.00000002      0.00000008     -0.00000000     -0.00000001     -0.00000000      0.00000005" volume=8000000.000000
 C              7.28766000       6.32384000      11.08071000       0.00760415       0.06919677       0.01661629      -8.93148168       0.85398012
 C              8.17010000       7.19820000      11.83431000      -0.06716888       0.00585379      -0.06103192      -8.93025431       0.85395875
 C              7.82312000       5.40379000      10.17174000       0.06700020       0.00002511      -0.05383926      -8.92904690       0.85401314
 C              9.55575000       7.11947000      11.65181000       0.03674302       0.01790444      -0.07999651      -8.92893716       0.85399506
 C             10.34747000       8.33446000      11.57854000       0.02986074      -0.03990050      -0.05419317      -8.93306765       0.85408954
 C              7.52513000       8.49407000      11.94969000      -0.02145822      -0.05277155      -0.04804614      -8.93254280       0.85396964
 C              8.28815000       9.66528000      11.88021000       0.04523646       0.03510110      -0.06097570      -8.93096209       0.85397520
 C              9.72519000       9.58294000      11.69074000      -0.04073063       0.08200764      -0.04784399      -8.92880233       0.85408450
 C              6.04281000       5.93248000       8.54449000      -0.01870245       0.08769073      -0.01700471      -8.93200909       0.85394107
 C              5.48781000       6.88671000       9.48799000      -0.00319851       0.02148370      -0.08411355      -8.93262439       0.85397162
 C              7.19130000       5.20716000       8.87936000       0.07018794      -0.04123665       0.04610676      -8.93778679       0.85407920
 C              6.09683000       7.07853000      10.73395000       0.08233606       0.05586268      -0.03259482      -8.92601127       0.85384843
 C              6.24545000       8.42128000      11.26831000       0.02833490      -0.05225760       0.01163594      -8.93440919       0.85404744
 C              5.00000000       8.02796000       8.73412000       0.04012896      -0.05760032      -0.04221483      -8.93264161       0.85401308
 C              5.14341000       9.32046000       9.25092000       0.03088940       0.08432388       0.05553463      -8.93518587       0.85408342
 C              5.77472000       9.52231000      10.54328000       0.03130973       0.01507213      -0.07175194      -8.92827038       0.85401938
 C              8.09699000       5.52910000       6.60450000      -0.01400419       0.09719512       0.04384151      -8.92716491       0.85381601
 C              6.90696000       6.28678000       6.25862000       0.04450155       0.03904589      -0.03491694      -8.93201935       0.85407565
 C              8.23661000       5.00000000       7.89356000      -0.00500968       0.02171255       0.04833060      -8.93365383       0.85397476
 C              5.89729000       6.48231000       7.20819000      -0.00588384       0.08009605       0.06628887      -8.92682072       0.85397937
 C              5.25014000       7.77861000       7.32528000       0.08660214      -0.01811877       0.04344511      -8.92434835       0.85397970
 C              7.30750000       7.38081000       5.39018000       0.04198238      -0.08153607       0.04770761      -8.92893940       0.85407898
 C              6.68539000       8.62933000       5.50232000      -0.03126107       0.04037940       0.05428921      -8.93320029       0.85409230
 C              5.63711000       8.83263000       6.48814000       0.08443161       0.01513523      -0.02585820      -8.92816596       0.85402605
 C             10.61144000       5.67417000       7.94558000      -0.01318634       0.05988636      -0.03032487      -8.92798722       0.85404640
 C             10.46803000       6.22407000       6.60851000      -0.02189395       0.07831606       0.07033311      -8.92276403       0.85392756
 C              9.51581000       5.07072000       8.57587000      -0.01066425       0.05751857       0.00774711      -8.93081430       0.85400528
 C              9.23212000       6.15584000       5.95340000      -0.00838795       0.02353548      -0.01760722      -8.93720080       0.85403410
 C              8.74452000       7.29848000       5.20075000      -0.04281762      -0.03265788       0.06020387      -8.93098453       0.85397518
 C             11.25804000       7.44140000       6.53754000      -0.03072911      -0.01546676       0.07278785      -8.92840139       0.85401177
 C             10.78743000       8.54244000       5.81255000      -0.02886927       0.05368866      -0.01194783      -8.93450766       0.85404610
 C              9.50772000       8.46964000       5.13124000       0.01967094       0.05321604       0.04766039      -8.93228295       0.85397400
 C             10.11096000       6.16490000      10.70855000       0.01824479       0.04383312       0.02524764      -8.93292604       0.85416549
 C             11.24922000       6.78972000      10.05652000      -0.09443612       0.03619200      -0.00728842      -8.92774714       0.85395653
 C              9.26140000       5.31910000       9.98455000      -0.03068992       0.08775074      -0.05655122      -8.92333229       0.85396393
 C             11.49086000       6.55105000       8.69835000      -0.02465556      -0.00570663      -0.03168902      -8.93667519       0.85409401
 C             11.88928000       7.64325000       7.82994000      -0.03007144      -0.08255801      -0.05599600      -8.93518097       0.85407944
 C             11.39574000       8.13108000      10.59273000      -0.08462357      -0.01462408       0.02648342      -8.92842215       0.85402301
 C             11.78269000       9.18516000       9.75574000      -0.08650065       0.01893668      -0.04518297      -8.92445070       0.85397913
 C             12.03279000       8.93571000       8.34690000      -0.04046263       0.05846200       0.04027037      -8.93243449       0.85401390
 C              9.74533000      10.63990000       6.00027000      -0.00799413      -0.07080930      -0.01803411      -8.93145760       0.85398045
 C             10.93620000       9.88519000       6.34702000      -0.08644679      -0.05567584       0.03033376      -8.92574999       0.85384544
 C             11.54502000      10.07699000       7.59304000       0.00405777      -0.02113183       0.08602610      -8.93263925       0.85397820
 C              9.20974000      11.55982000       6.90925000      -0.06813460       0.00147007       0.05404133      -8.92916515       0.85401128
 C              6.92189000      10.79886000       6.37217000      -0.01794901      -0.04351976      -0.02452707      -8.93306708       0.85416025
 C              7.47719000       9.84434000       5.42897000      -0.03870127      -0.01961059       0.08054085      -8.92874263       0.85399212
 C              8.86285000       9.76560000       5.24659000       0.06776063      -0.00764056       0.06089023      -8.93016702       0.85396489
 C              7.77145000      11.64456000       7.09627000       0.02935088      -0.08755468       0.05662709      -8.92346950       0.85396044
 C              6.42112000      11.28960000       9.13514000       0.01291065      -0.06157600       0.03177796      -8.92793170       0.85404620
 C              5.54173000      10.41268000       8.38235000       0.02660606       0.00549472       0.03193403      -8.93625724       0.85409674
 C              5.78360000      10.17405000       7.02416000       0.09182036      -0.03711134       0.01193560      -8.92783693       0.85396315
 C              7.51683000      11.89289000       8.50490000       0.01236763      -0.05566480      -0.00753685      -8.93097735       0.85400301
 C              8.93558000      11.43467000      10.47645000       0.01419184      -0.09821710      -0.04297752      -8.92726579       0.85381398
 C              7.80046000      10.80795000      11.12755000       0.00702696      -0.02415624       0.01584074      -8.93694630       0.85403666
 C              6.56458000      10.73974000      10.47227000       0.02358636      -0.08010097      -0.06796932      -8.92267782       0.85393602
 C              8.79593000      11.96360000       9.18735000       0.00691236      -0.02052003      -0.04908211      -8.93386184       0.85397361
 C             10.98991000      11.03123000       8.53658000       0.01920102      -0.08853847       0.01679967      -8.93190540       0.85394506
 C             11.13547000      10.48148000       9.87290000       0.00448556      -0.08032359      -0.06744155      -8.92650625       0.85398101
 C             10.12566000      10.67705000      10.82237000      -0.04216497      -0.04113294       0.03444722      -8.93201550       0.85408165
 C              9.84135000      11.75643000       8.20170000      -0.06854633       0.04133122      -0.04718766      -8.93794092       0.85408118
