     250
 Properties=species:S:1:pos:R:3:forces:R:3:local_energy:R:1:hirshfeld_v:R:1 Lattice="100.0000000000      0.0000000000    0.0000000000    0.0000000000   75.0000000000    0.0000000000    0.0000000000    0.0000000000   75.0000000000" energy=-274.169511 virial="-1000.88573185        0.00000000     -0.00000000      0.00000000      0.00000000      0.00000000     -0.00000000      0.00000000      0.00000000" stress="0.00177935           -0.00000000      0.00000000     -0.00000000     -0.00000000     -0.00000000      0.00000000     -0.00000000     -0.00000000" volume=562500.000000
 C              0.00000000       0.00000000       0.00000000       2.96558735      -0.00000000       0.00000000      -1.09667804       1.01613734
 C              2.70000000       0.00000000       0.00000000      -2.96558735       0.00000000      -0.00000000      -1.09667804       1.01613734
 C              0.00000000       0.00000000      15.00000000       2.96558735      -0.00000000       0.00000000      -1.09667804       1.01613734
 C              2.70000000       0.00000000      15.00000000      -2.96558735       0.00000000      -0.00000000      -1.09667804       1.01613734
 C              0.00000000       0.00000000      30.00000000       2.96558735      -0.00000000       0.00000000      -1.09667804       1.01613734
 C              2.70000000       0.00000000      30.00000000      -2.96558735       0.00000000      -0.00000000      -1.09667804       1.01613734
 C              0.00000000       0.00000000      45.00000000       2.96558735      -0.00000000       0.00000000      -1.09667804       1.01613734
 C              2.70000000       0.00000000      45.00000000      -2.96558735       0.00000000      -0.00000000      -1.09667804       1.01613734
 C              0.00000000       0.00000000      60.00000000       2.96558735      -0.00000000       0.00000000      -1.09667804       1.01613734
 C              2.70000000       0.00000000      60.00000000      -2.96558735       0.00000000      -0.00000000      -1.09667804       1.01613734
 C              0.00000000      15.00000000       0.00000000       2.96558735      -0.00000000       0.00000000      -1.09667804       1.01613734
 C              2.70000000      15.00000000       0.00000000      -2.96558735       0.00000000      -0.00000000      -1.09667804       1.01613734
 C              0.00000000      15.00000000      15.00000000       2.96558735      -0.00000000       0.00000000      -1.09667804       1.01613734
 C              2.70000000      15.00000000      15.00000000      -2.96558735       0.00000000      -0.00000000      -1.09667804       1.01613734
 C              0.00000000      15.00000000      30.00000000       2.96558735      -0.00000000       0.00000000      -1.09667804       1.01613734
 C              2.70000000      15.00000000      30.00000000      -2.96558735       0.00000000      -0.00000000      -1.09667804       1.01613734
 C              0.00000000      15.00000000      45.00000000       2.96558735      -0.00000000       0.00000000      -1.09667804       1.01613734
 C              2.70000000      15.00000000      45.00000000      -2.96558735       0.00000000      -0.00000000      -1.09667804       1.01613734
 C              0.00000000      15.00000000      60.00000000       2.96558735      -0.00000000       0.00000000      -1.09667804       1.01613734
 C              2.70000000      15.00000000      60.00000000      -2.96558735       0.00000000      -0.00000000      -1.09667804       1.01613734
 C              0.00000000      30.00000000       0.00000000       2.96558735      -0.00000000       0.00000000      -1.09667804       1.01613734
 C              2.70000000      30.00000000       0.00000000      -2.96558735       0.00000000      -0.00000000      -1.09667804       1.01613734
 C              0.00000000      30.00000000      15.00000000       2.96558735      -0.00000000       0.00000000      -1.09667804       1.01613734
 C              2.70000000      30.00000000      15.00000000      -2.96558735       0.00000000      -0.00000000      -1.09667804       1.01613734
 C              0.00000000      30.00000000      30.00000000       2.96558735      -0.00000000       0.00000000      -1.09667804       1.01613734
 C              2.70000000      30.00000000      30.00000000      -2.96558735       0.00000000      -0.00000000      -1.09667804       1.01613734
 C              0.00000000      30.00000000      45.00000000       2.96558735      -0.00000000       0.00000000      -1.09667804       1.01613734
 C              2.70000000      30.00000000      45.00000000      -2.96558735       0.00000000      -0.00000000      -1.09667804       1.01613734
 C              0.00000000      30.00000000      60.00000000       2.96558735      -0.00000000       0.00000000      -1.09667804       1.01613734
 C              2.70000000      30.00000000      60.00000000      -2.96558735       0.00000000      -0.00000000      -1.09667804       1.01613734
 C              0.00000000      45.00000000       0.00000000       2.96558735      -0.00000000       0.00000000      -1.09667804       1.01613734
 C              2.70000000      45.00000000       0.00000000      -2.96558735       0.00000000      -0.00000000      -1.09667804       1.01613734
 C              0.00000000      45.00000000      15.00000000       2.96558735      -0.00000000       0.00000000      -1.09667804       1.01613734
 C              2.70000000      45.00000000      15.00000000      -2.96558735       0.00000000      -0.00000000      -1.09667804       1.01613734
 C              0.00000000      45.00000000      30.00000000       2.96558735      -0.00000000       0.00000000      -1.09667804       1.01613734
 C              2.70000000      45.00000000      30.00000000      -2.96558735       0.00000000      -0.00000000      -1.09667804       1.01613734
 C              0.00000000      45.00000000      45.00000000       2.96558735      -0.00000000       0.00000000      -1.09667804       1.01613734
 C              2.70000000      45.00000000      45.00000000      -2.96558735       0.00000000      -0.00000000      -1.09667804       1.01613734
 C              0.00000000      45.00000000      60.00000000       2.96558735      -0.00000000       0.00000000      -1.09667804       1.01613734
 C              2.70000000      45.00000000      60.00000000      -2.96558735       0.00000000      -0.00000000      -1.09667804       1.01613734
 C              0.00000000      60.00000000       0.00000000       2.96558735      -0.00000000       0.00000000      -1.09667804       1.01613734
 C              2.70000000      60.00000000       0.00000000      -2.96558735       0.00000000      -0.00000000      -1.09667804       1.01613734
 C              0.00000000      60.00000000      15.00000000       2.96558735      -0.00000000       0.00000000      -1.09667804       1.01613734
 C              2.70000000      60.00000000      15.00000000      -2.96558735       0.00000000      -0.00000000      -1.09667804       1.01613734
 C              0.00000000      60.00000000      30.00000000       2.96558735      -0.00000000       0.00000000      -1.09667804       1.01613734
 C              2.70000000      60.00000000      30.00000000      -2.96558735       0.00000000      -0.00000000      -1.09667804       1.01613734
 C              0.00000000      60.00000000      45.00000000       2.96558735      -0.00000000       0.00000000      -1.09667804       1.01613734
 C              2.70000000      60.00000000      45.00000000      -2.96558735       0.00000000      -0.00000000      -1.09667804       1.01613734
 C              0.00000000      60.00000000      60.00000000       2.96558735      -0.00000000       0.00000000      -1.09667804       1.01613734
 C              2.70000000      60.00000000      60.00000000      -2.96558735       0.00000000      -0.00000000      -1.09667804       1.01613734
 C             20.00000000       0.00000000       0.00000000       2.96558735      -0.00000000       0.00000000      -1.09667804       1.01613734
 C             22.70000000       0.00000000       0.00000000      -2.96558735       0.00000000      -0.00000000      -1.09667804       1.01613734
 C             20.00000000       0.00000000      15.00000000       2.96558735      -0.00000000       0.00000000      -1.09667804       1.01613734
 C             22.70000000       0.00000000      15.00000000      -2.96558735       0.00000000      -0.00000000      -1.09667804       1.01613734
 C             20.00000000       0.00000000      30.00000000       2.96558735      -0.00000000       0.00000000      -1.09667804       1.01613734
 C             22.70000000       0.00000000      30.00000000      -2.96558735       0.00000000      -0.00000000      -1.09667804       1.01613734
 C             20.00000000       0.00000000      45.00000000       2.96558735      -0.00000000       0.00000000      -1.09667804       1.01613734
 C             22.70000000       0.00000000      45.00000000      -2.96558735       0.00000000      -0.00000000      -1.09667804       1.01613734
 C             20.00000000       0.00000000      60.00000000       2.96558735      -0.00000000       0.00000000      -1.09667804       1.01613734
 C             22.70000000       0.00000000      60.00000000      -2.96558735       0.00000000      -0.00000000      -1.09667804       1.01613734
 C             20.00000000      15.00000000       0.00000000       2.96558735      -0.00000000       0.00000000      -1.09667804       1.01613734
 C             22.70000000      15.00000000       0.00000000      -2.96558735       0.00000000      -0.00000000      -1.09667804       1.01613734
 C             20.00000000      15.00000000      15.00000000       2.96558735      -0.00000000       0.00000000      -1.09667804       1.01613734
 C             22.70000000      15.00000000      15.00000000      -2.96558735       0.00000000      -0.00000000      -1.09667804       1.01613734
 C             20.00000000      15.00000000      30.00000000       2.96558735      -0.00000000       0.00000000      -1.09667804       1.01613734
 C             22.70000000      15.00000000      30.00000000      -2.96558735       0.00000000      -0.00000000      -1.09667804       1.01613734
 C             20.00000000      15.00000000      45.00000000       2.96558735      -0.00000000       0.00000000      -1.09667804       1.01613734
 C             22.70000000      15.00000000      45.00000000      -2.96558735       0.00000000      -0.00000000      -1.09667804       1.01613734
 C             20.00000000      15.00000000      60.00000000       2.96558735      -0.00000000       0.00000000      -1.09667804       1.01613734
 C             22.70000000      15.00000000      60.00000000      -2.96558735       0.00000000      -0.00000000      -1.09667804       1.01613734
 C             20.00000000      30.00000000       0.00000000       2.96558735      -0.00000000       0.00000000      -1.09667804       1.01613734
 C             22.70000000      30.00000000       0.00000000      -2.96558735       0.00000000      -0.00000000      -1.09667804       1.01613734
 C             20.00000000      30.00000000      15.00000000       2.96558735      -0.00000000       0.00000000      -1.09667804       1.01613734
 C             22.70000000      30.00000000      15.00000000      -2.96558735       0.00000000      -0.00000000      -1.09667804       1.01613734
 C             20.00000000      30.00000000      30.00000000       2.96558735      -0.00000000       0.00000000      -1.09667804       1.01613734
 C             22.70000000      30.00000000      30.00000000      -2.96558735       0.00000000      -0.00000000      -1.09667804       1.01613734
 C             20.00000000      30.00000000      45.00000000       2.96558735      -0.00000000       0.00000000      -1.09667804       1.01613734
 C             22.70000000      30.00000000      45.00000000      -2.96558735       0.00000000      -0.00000000      -1.09667804       1.01613734
 C             20.00000000      30.00000000      60.00000000       2.96558735      -0.00000000       0.00000000      -1.09667804       1.01613734
 C             22.70000000      30.00000000      60.00000000      -2.96558735       0.00000000      -0.00000000      -1.09667804       1.01613734
 C             20.00000000      45.00000000       0.00000000       2.96558735      -0.00000000       0.00000000      -1.09667804       1.01613734
 C             22.70000000      45.00000000       0.00000000      -2.96558735       0.00000000      -0.00000000      -1.09667804       1.01613734
 C             20.00000000      45.00000000      15.00000000       2.96558735      -0.00000000       0.00000000      -1.09667804       1.01613734
 C             22.70000000      45.00000000      15.00000000      -2.96558735       0.00000000      -0.00000000      -1.09667804       1.01613734
 C             20.00000000      45.00000000      30.00000000       2.96558735      -0.00000000       0.00000000      -1.09667804       1.01613734
 C             22.70000000      45.00000000      30.00000000      -2.96558735       0.00000000      -0.00000000      -1.09667804       1.01613734
 C             20.00000000      45.00000000      45.00000000       2.96558735      -0.00000000       0.00000000      -1.09667804       1.01613734
 C             22.70000000      45.00000000      45.00000000      -2.96558735       0.00000000      -0.00000000      -1.09667804       1.01613734
 C             20.00000000      45.00000000      60.00000000       2.96558735      -0.00000000       0.00000000      -1.09667804       1.01613734
 C             22.70000000      45.00000000      60.00000000      -2.96558735       0.00000000      -0.00000000      -1.09667804       1.01613734
 C             20.00000000      60.00000000       0.00000000       2.96558735      -0.00000000       0.00000000      -1.09667804       1.01613734
 C             22.70000000      60.00000000       0.00000000      -2.96558735       0.00000000      -0.00000000      -1.09667804       1.01613734
 C             20.00000000      60.00000000      15.00000000       2.96558735      -0.00000000       0.00000000      -1.09667804       1.01613734
 C             22.70000000      60.00000000      15.00000000      -2.96558735       0.00000000      -0.00000000      -1.09667804       1.01613734
 C             20.00000000      60.00000000      30.00000000       2.96558735      -0.00000000       0.00000000      -1.09667804       1.01613734
 C             22.70000000      60.00000000      30.00000000      -2.96558735       0.00000000      -0.00000000      -1.09667804       1.01613734
 C             20.00000000      60.00000000      45.00000000       2.96558735      -0.00000000       0.00000000      -1.09667804       1.01613734
 C             22.70000000      60.00000000      45.00000000      -2.96558735       0.00000000      -0.00000000      -1.09667804       1.01613734
 C             20.00000000      60.00000000      60.00000000       2.96558735      -0.00000000       0.00000000      -1.09667804       1.01613734
 C             22.70000000      60.00000000      60.00000000      -2.96558735       0.00000000      -0.00000000      -1.09667804       1.01613734
 C             40.00000000       0.00000000       0.00000000       2.96558735      -0.00000000       0.00000000      -1.09667804       1.01613734
 C             42.70000000       0.00000000       0.00000000      -2.96558735       0.00000000       0.00000000      -1.09667804       1.01613734
 C             40.00000000       0.00000000      15.00000000       2.96558735      -0.00000000       0.00000000      -1.09667804       1.01613734
 C             42.70000000       0.00000000      15.00000000      -2.96558735       0.00000000       0.00000000      -1.09667804       1.01613734
 C             40.00000000       0.00000000      30.00000000       2.96558735      -0.00000000       0.00000000      -1.09667804       1.01613734
 C             42.70000000       0.00000000      30.00000000      -2.96558735       0.00000000       0.00000000      -1.09667804       1.01613734
 C             40.00000000       0.00000000      45.00000000       2.96558735      -0.00000000       0.00000000      -1.09667804       1.01613734
 C             42.70000000       0.00000000      45.00000000      -2.96558735       0.00000000       0.00000000      -1.09667804       1.01613734
 C             40.00000000       0.00000000      60.00000000       2.96558735      -0.00000000       0.00000000      -1.09667804       1.01613734
 C             42.70000000       0.00000000      60.00000000      -2.96558735       0.00000000       0.00000000      -1.09667804       1.01613734
 C             40.00000000      15.00000000       0.00000000       2.96558735      -0.00000000       0.00000000      -1.09667804       1.01613734
 C             42.70000000      15.00000000       0.00000000      -2.96558735       0.00000000       0.00000000      -1.09667804       1.01613734
 C             40.00000000      15.00000000      15.00000000       2.96558735      -0.00000000       0.00000000      -1.09667804       1.01613734
 C             42.70000000      15.00000000      15.00000000      -2.96558735       0.00000000       0.00000000      -1.09667804       1.01613734
 C             40.00000000      15.00000000      30.00000000       2.96558735      -0.00000000       0.00000000      -1.09667804       1.01613734
 C             42.70000000      15.00000000      30.00000000      -2.96558735       0.00000000       0.00000000      -1.09667804       1.01613734
 C             40.00000000      15.00000000      45.00000000       2.96558735      -0.00000000       0.00000000      -1.09667804       1.01613734
 C             42.70000000      15.00000000      45.00000000      -2.96558735       0.00000000       0.00000000      -1.09667804       1.01613734
 C             40.00000000      15.00000000      60.00000000       2.96558735      -0.00000000       0.00000000      -1.09667804       1.01613734
 C             42.70000000      15.00000000      60.00000000      -2.96558735       0.00000000       0.00000000      -1.09667804       1.01613734
 C             40.00000000      30.00000000       0.00000000       2.96558735      -0.00000000       0.00000000      -1.09667804       1.01613734
 C             42.70000000      30.00000000       0.00000000      -2.96558735       0.00000000       0.00000000      -1.09667804       1.01613734
 C             40.00000000      30.00000000      15.00000000       2.96558735      -0.00000000       0.00000000      -1.09667804       1.01613734
 C             42.70000000      30.00000000      15.00000000      -2.96558735       0.00000000      -0.00000000      -1.09667804       1.01613734
 C             40.00000000      30.00000000      30.00000000       2.96558735      -0.00000000       0.00000000      -1.09667804       1.01613734
 C             42.70000000      30.00000000      30.00000000      -2.96558735       0.00000000      -0.00000000      -1.09667804       1.01613734
 C             40.00000000      30.00000000      45.00000000       2.96558735      -0.00000000       0.00000000      -1.09667804       1.01613734
 C             42.70000000      30.00000000      45.00000000      -2.96558735       0.00000000       0.00000000      -1.09667804       1.01613734
 C             40.00000000      30.00000000      60.00000000       2.96558735      -0.00000000       0.00000000      -1.09667804       1.01613734
 C             42.70000000      30.00000000      60.00000000      -2.96558735       0.00000000       0.00000000      -1.09667804       1.01613734
 C             40.00000000      45.00000000       0.00000000       2.96558735      -0.00000000       0.00000000      -1.09667804       1.01613734
 C             42.70000000      45.00000000       0.00000000      -2.96558735       0.00000000       0.00000000      -1.09667804       1.01613734
 C             40.00000000      45.00000000      15.00000000       2.96558735      -0.00000000       0.00000000      -1.09667804       1.01613734
 C             42.70000000      45.00000000      15.00000000      -2.96558735       0.00000000       0.00000000      -1.09667804       1.01613734
 C             40.00000000      45.00000000      30.00000000       2.96558735      -0.00000000       0.00000000      -1.09667804       1.01613734
 C             42.70000000      45.00000000      30.00000000      -2.96558735       0.00000000       0.00000000      -1.09667804       1.01613734
 C             40.00000000      45.00000000      45.00000000       2.96558735      -0.00000000       0.00000000      -1.09667804       1.01613734
 C             42.70000000      45.00000000      45.00000000      -2.96558735       0.00000000       0.00000000      -1.09667804       1.01613734
 C             40.00000000      45.00000000      60.00000000       2.96558735      -0.00000000       0.00000000      -1.09667804       1.01613734
 C             42.70000000      45.00000000      60.00000000      -2.96558735       0.00000000       0.00000000      -1.09667804       1.01613734
 C             40.00000000      60.00000000       0.00000000       2.96558735      -0.00000000       0.00000000      -1.09667804       1.01613734
 C             42.70000000      60.00000000       0.00000000      -2.96558735       0.00000000       0.00000000      -1.09667804       1.01613734
 C             40.00000000      60.00000000      15.00000000       2.96558735      -0.00000000       0.00000000      -1.09667804       1.01613734
 C             42.70000000      60.00000000      15.00000000      -2.96558735       0.00000000       0.00000000      -1.09667804       1.01613734
 C             40.00000000      60.00000000      30.00000000       2.96558735      -0.00000000       0.00000000      -1.09667804       1.01613734
 C             42.70000000      60.00000000      30.00000000      -2.96558735       0.00000000       0.00000000      -1.09667804       1.01613734
 C             40.00000000      60.00000000      45.00000000       2.96558735      -0.00000000       0.00000000      -1.09667804       1.01613734
 C             42.70000000      60.00000000      45.00000000      -2.96558735       0.00000000       0.00000000      -1.09667804       1.01613734
 C             40.00000000      60.00000000      60.00000000       2.96558735      -0.00000000       0.00000000      -1.09667804       1.01613734
 C             42.70000000      60.00000000      60.00000000      -2.96558735       0.00000000       0.00000000      -1.09667804       1.01613734
 C             60.00000000       0.00000000       0.00000000       2.96558735      -0.00000000       0.00000000      -1.09667804       1.01613734
 C             62.70000000       0.00000000       0.00000000      -2.96558735       0.00000000       0.00000000      -1.09667804       1.01613734
 C             60.00000000       0.00000000      15.00000000       2.96558735      -0.00000000       0.00000000      -1.09667804       1.01613734
 C             62.70000000       0.00000000      15.00000000      -2.96558735       0.00000000       0.00000000      -1.09667804       1.01613734
 C             60.00000000       0.00000000      30.00000000       2.96558735      -0.00000000       0.00000000      -1.09667804       1.01613734
 C             62.70000000       0.00000000      30.00000000      -2.96558735       0.00000000       0.00000000      -1.09667804       1.01613734
 C             60.00000000       0.00000000      45.00000000       2.96558735      -0.00000000      -0.00000000      -1.09667804       1.01613734
 C             62.70000000       0.00000000      45.00000000      -2.96558735       0.00000000       0.00000000      -1.09667804       1.01613734
 C             60.00000000       0.00000000      60.00000000       2.96558735      -0.00000000       0.00000000      -1.09667804       1.01613734
 C             62.70000000       0.00000000      60.00000000      -2.96558735       0.00000000       0.00000000      -1.09667804       1.01613734
 C             60.00000000      15.00000000       0.00000000       2.96558735      -0.00000000       0.00000000      -1.09667804       1.01613734
 C             62.70000000      15.00000000       0.00000000      -2.96558735       0.00000000       0.00000000      -1.09667804       1.01613734
 C             60.00000000      15.00000000      15.00000000       2.96558735      -0.00000000       0.00000000      -1.09667804       1.01613734
 C             62.70000000      15.00000000      15.00000000      -2.96558735       0.00000000       0.00000000      -1.09667804       1.01613734
 C             60.00000000      15.00000000      30.00000000       2.96558735      -0.00000000       0.00000000      -1.09667804       1.01613734
 C             62.70000000      15.00000000      30.00000000      -2.96558735       0.00000000       0.00000000      -1.09667804       1.01613734
 C             60.00000000      15.00000000      45.00000000       2.96558735      -0.00000000       0.00000000      -1.09667804       1.01613734
 C             62.70000000      15.00000000      45.00000000      -2.96558735       0.00000000       0.00000000      -1.09667804       1.01613734
 C             60.00000000      15.00000000      60.00000000       2.96558735      -0.00000000       0.00000000      -1.09667804       1.01613734
 C             62.70000000      15.00000000      60.00000000      -2.96558735       0.00000000       0.00000000      -1.09667804       1.01613734
 C             60.00000000      30.00000000       0.00000000       2.96558735      -0.00000000       0.00000000      -1.09667804       1.01613734
 C             62.70000000      30.00000000       0.00000000      -2.96558735       0.00000000       0.00000000      -1.09667804       1.01613734
 C             60.00000000      30.00000000      15.00000000       2.96558735      -0.00000000       0.00000000      -1.09667804       1.01613734
 C             62.70000000      30.00000000      15.00000000      -2.96558735       0.00000000       0.00000000      -1.09667804       1.01613734
 C             60.00000000      30.00000000      30.00000000       2.96558735      -0.00000000       0.00000000      -1.09667804       1.01613734
 C             62.70000000      30.00000000      30.00000000      -2.96558735       0.00000000       0.00000000      -1.09667804       1.01613734
 C             60.00000000      30.00000000      45.00000000       2.96558735      -0.00000000       0.00000000      -1.09667804       1.01613734
 C             62.70000000      30.00000000      45.00000000      -2.96558735       0.00000000       0.00000000      -1.09667804       1.01613734
 C             60.00000000      30.00000000      60.00000000       2.96558735      -0.00000000       0.00000000      -1.09667804       1.01613734
 C             62.70000000      30.00000000      60.00000000      -2.96558735       0.00000000       0.00000000      -1.09667804       1.01613734
 C             60.00000000      45.00000000       0.00000000       2.96558735      -0.00000000       0.00000000      -1.09667804       1.01613734
 C             62.70000000      45.00000000       0.00000000      -2.96558735       0.00000000       0.00000000      -1.09667804       1.01613734
 C             60.00000000      45.00000000      15.00000000       2.96558735      -0.00000000       0.00000000      -1.09667804       1.01613734
 C             62.70000000      45.00000000      15.00000000      -2.96558735       0.00000000       0.00000000      -1.09667804       1.01613734
 C             60.00000000      45.00000000      30.00000000       2.96558735      -0.00000000       0.00000000      -1.09667804       1.01613734
 C             62.70000000      45.00000000      30.00000000      -2.96558735       0.00000000      -0.00000000      -1.09667804       1.01613734
 C             60.00000000      45.00000000      45.00000000       2.96558735      -0.00000000       0.00000000      -1.09667804       1.01613734
 C             62.70000000      45.00000000      45.00000000      -2.96558735       0.00000000      -0.00000000      -1.09667804       1.01613734
 C             60.00000000      45.00000000      60.00000000       2.96558735      -0.00000000       0.00000000      -1.09667804       1.01613734
 C             62.70000000      45.00000000      60.00000000      -2.96558735       0.00000000       0.00000000      -1.09667804       1.01613734
 C             60.00000000      60.00000000       0.00000000       2.96558735      -0.00000000       0.00000000      -1.09667804       1.01613734
 C             62.70000000      60.00000000       0.00000000      -2.96558735       0.00000000       0.00000000      -1.09667804       1.01613734
 C             60.00000000      60.00000000      15.00000000       2.96558735      -0.00000000       0.00000000      -1.09667804       1.01613734
 C             62.70000000      60.00000000      15.00000000      -2.96558735       0.00000000       0.00000000      -1.09667804       1.01613734
 C             60.00000000      60.00000000      30.00000000       2.96558735      -0.00000000       0.00000000      -1.09667804       1.01613734
 C             62.70000000      60.00000000      30.00000000      -2.96558735       0.00000000       0.00000000      -1.09667804       1.01613734
 C             60.00000000      60.00000000      45.00000000       2.96558735      -0.00000000       0.00000000      -1.09667804       1.01613734
 C             62.70000000      60.00000000      45.00000000      -2.96558735       0.00000000       0.00000000      -1.09667804       1.01613734
 C             60.00000000      60.00000000      60.00000000       2.96558735      -0.00000000       0.00000000      -1.09667804       1.01613734
 C             62.70000000      60.00000000      60.00000000      -2.96558735       0.00000000       0.00000000      -1.09667804       1.01613734
 C             80.00000000       0.00000000       0.00000000       2.96558735      -0.00000000       0.00000000      -1.09667804       1.01613734