      60
 Properties=species:S:1:pos:R:3:forces:R:3:local_energy:R:1:hirshfeld_v:R:1 Lattice="200.0000000000      0.0000000000    0.0000000000    0.0000000000  200.0000000000    0.0000000000    0.0000000000    0.0000000000  200.0000000000" energy=-525.764696 virial="1.87604668           -0.29654412      0.02523265     -0.29654412      1.65077359      0.08621061      0.02523265      0.08621061      1.62106281" stress="-0.00000023           0.00000004     -0.00000000      0.00000004     -0.00000021     -0.00000001     -0.00000000     -0.00000001     -0.00000020" volume=8000000.000000
 C              7.28766000       6.32384000      11.08071000       0.21052712      -0.22123714      -0.31547997      -8.76351774       0.85398012
 C              8.17010000       7.19820000      11.83431000       0.40156559      -0.01514966      -0.15594213      -8.76462432       0.85395875
 C              7.82312000       5.40379000      10.17174000      -0.10963702       0.34340626       0.22585122      -8.76231345       0.85401314
 C              9.55575000       7.11947000      11.65181000      -0.42868699       0.06225574      -0.04688999      -8.75950550       0.85399506
 C             10.34747000       8.33446000      11.57854000      -0.19755277       0.39429181      -0.04321370      -8.76356662       0.85408954
 C              7.52513000       8.49407000      11.94969000       0.24271968       0.33864532      -0.10545362      -8.75986195       0.85396964
 C              8.28815000       9.66528000      11.88021000      -0.21440011      -0.36300762      -0.05814494      -8.76182458       0.85397520
 C              9.72519000       9.58294000      11.69074000       0.15848915      -0.34466304      -0.12058599      -8.75972323       0.85408450
 C              6.04281000       5.93248000       8.54449000       0.38382402      -0.15003231       0.09268767      -8.76099383       0.85394107
 C              5.48781000       6.88671000       9.48799000       0.24416535       0.10758085       0.31025520      -8.76414257       0.85397162
 C              7.19130000       5.20716000       8.87936000      -0.30963837       0.24226100      -0.07552050      -8.76051126       0.85407920
 C              6.09683000       7.07853000      10.73395000      -0.10373911       0.00843374      -0.45957165      -8.76304865       0.85384843
 C              6.24545000       8.42128000      11.26831000      -0.10446836       0.32878996      -0.27295783      -8.76405800       0.85404744
 C              5.00000000       8.02796000       8.73412000       0.11336249       0.39748764       0.13512928      -8.76155611       0.85401308
 C              5.14341000       9.32046000       9.25092000       0.02256024      -0.36146868      -0.11744803      -8.75970165       0.85408342
 C              5.77472000       9.52231000      10.54328000       0.21348309      -0.36062693       0.16191214      -8.76341416       0.85401938
 C              8.09699000       5.52910000       6.60450000       0.02962569      -0.05962205       0.48448418      -8.76093519       0.85381601
 C              6.90696000       6.28678000       6.25862000      -0.28208535       0.13772566       0.31415727      -8.76596468       0.85407565
 C              8.23661000       5.00000000       7.89356000      -0.04848044       0.24048970      -0.36894352      -8.76229867       0.85397476
 C              5.89729000       6.48231000       7.20819000       0.35989445       0.03180247      -0.23041850      -8.76397258       0.85397937
 C              5.25014000       7.77861000       7.32528000       0.25066119       0.34082308      -0.22256735      -8.76561828       0.85397970
 C              7.30750000       7.38081000       5.39018000      -0.15750380       0.34466025       0.11991086      -8.75967950       0.85407898
 C              6.68539000       8.62933000       5.50232000       0.19636214      -0.39374206       0.04272714      -8.76363758       0.85409230
 C              5.63711000       8.83263000       6.48814000       0.00613669      -0.33746604       0.28198840      -8.76365481       0.85402605
 C             10.61144000       5.67417000       7.94558000      -0.40085695      -0.10619154       0.19981841      -8.76398963       0.85404640
 C             10.46803000       6.22407000       6.60851000      -0.44715851       0.07615280      -0.12971621      -8.76369087       0.85392756
 C              9.51581000       5.07072000       8.57587000       0.35898289       0.29012692      -0.19731354      -8.76389948       0.85400528
 C              9.23212000       6.15584000       5.95340000       0.40720116       0.08121659       0.23649651      -8.76449965       0.85403410
 C              8.74452000       7.29848000       5.20075000       0.21670119       0.36575310       0.05747102      -8.76184533       0.85397518
 C             11.25804000       7.44140000       6.53754000      -0.21234231       0.35999859      -0.16111727      -8.76348366       0.85401177
 C             10.78743000       8.54244000       5.81255000       0.10395140      -0.32702507       0.27235942      -8.76402526       0.85404610
 C              9.50772000       8.46964000       5.13124000      -0.24491142      -0.33832103       0.10557192      -8.75992935       0.85397400
 C             10.11096000       6.16490000      10.70855000      -0.28604611      -0.20276670      -0.25690132      -8.76540469       0.85416549
 C             11.24922000       6.78972000      10.05652000      -0.02622533      -0.04903907      -0.46908430      -8.76104291       0.85395653
 C              9.26140000       5.31910000       9.98455000       0.24742422       0.38663661       0.17150271      -8.76450293       0.85396393
 C             11.49086000       6.55105000       8.69835000      -0.13401861       0.08784086       0.42371133      -8.76026329       0.85409401
 C             11.88928000       7.64325000       7.82994000      -0.02196320       0.36345826       0.11705744      -8.75972789       0.85407944
 C             11.39574000       8.13108000      10.59273000      -0.00576651       0.33766847      -0.28108348      -8.76373719       0.85402301
 C             11.78269000       9.18516000       9.75574000      -0.25033557      -0.33945582       0.22108611      -8.76563946       0.85397913
 C             12.03279000       8.93571000       8.34690000      -0.11422107      -0.39674051      -0.13662189      -8.76156121       0.85401390
 C              9.74533000      10.63990000       6.00027000      -0.21094970       0.21986338       0.31411742      -8.76355885       0.85398045
 C             10.93620000       9.88519000       6.34702000       0.09917444      -0.00919886       0.45684481      -8.76309221       0.85384544
 C             11.54502000      10.07699000       7.59304000      -0.24368868      -0.10682186      -0.30802618      -8.76416317       0.85397820
 C              9.20974000      11.55982000       6.90925000       0.10893415      -0.34191468      -0.22540369      -8.76221333       0.85401128
 C              6.92189000      10.79886000       6.37217000       0.28572481       0.20329773       0.25785062      -8.76535911       0.85416025
 C              7.47719000       9.84434000       5.42897000       0.42633387      -0.06476354       0.04781788      -8.75949347       0.85399212
 C              8.86285000       9.76560000       5.24659000      -0.40086283       0.01379697       0.15607063      -8.76464517       0.85396489
 C              7.77145000      11.64456000       7.09627000      -0.24844390      -0.38612482      -0.17199632      -8.76455712       0.85396044
 C              6.42112000      11.28960000       9.13514000       0.40051550       0.10472706      -0.19830549      -8.76392556       0.85404620
 C              5.54173000      10.41268000       8.38235000       0.13608228      -0.08896409      -0.42260892      -8.76039131       0.85409674
 C              5.78360000      10.17405000       7.02416000       0.02375072       0.04876037       0.47391635      -8.76114672       0.85396315
 C              7.51683000      11.89289000       8.50490000      -0.35761903      -0.28847956       0.19700486      -8.76381802       0.85400301
 C              8.93558000      11.43467000      10.47645000      -0.02922287       0.05876780      -0.48358484      -8.76086256       0.85381398
 C              7.80046000      10.80795000      11.12755000      -0.40801000      -0.08258937      -0.23807202      -8.76457705       0.85403666
 C              6.56458000      10.73974000      10.47227000       0.44916533      -0.07749545       0.13148317      -8.76381231       0.85393602
 C              8.79593000      11.96360000       9.18735000       0.04999221      -0.23905963       0.36853634      -8.76226846       0.85397361
 C             10.98991000      11.03123000       8.53658000      -0.38332938       0.14943952      -0.09369084      -8.76099915       0.85394506
 C             11.13547000      10.48148000       9.87290000      -0.36112068      -0.03288230       0.22884913      -8.76395707       0.85398101
 C             10.12566000      10.67705000      10.82237000       0.28437519      -0.13942220      -0.31503738      -8.76604712       0.85408165
 C              9.84135000      11.75643000       8.20170000       0.31157860      -0.24189000       0.07502373      -8.76044073       0.85408118
