      60
 Properties=species:S:1:pos:R:3:forces:R:3:local_energy:R:1:hirshfeld_v:R:1 Lattice="200.0000000000      0.0000000000    0.0000000000    0.0000000000  200.0000000000    0.0000000000    0.0000000000    0.0000000000  200.0000000000" energy=-525.711009 virial="1.87604670           -0.29654412      0.02523267     -0.29654412      1.65077361      0.08621061      0.02523267      0.08621061      1.62106281" stress="-0.00000023           0.00000004     -0.00000000      0.00000004     -0.00000021     -0.00000001     -0.00000000     -0.00000001     -0.00000020" volume=8000000.000000
 C              7.28766000       6.32384000      11.08071000       0.11414420      -0.23191505      -0.13687722      -8.76261658       0.85398012
 C              8.17010000       7.19820000      11.83431000       0.26852274      -0.05731071      -0.00612628      -8.76373135       0.85395875
 C              7.82312000       5.40379000      10.17174000      -0.09285314       0.13729149       0.21519592      -8.76142099       0.85401314
 C              9.55575000       7.11947000      11.65181000      -0.26808777      -0.00469264       0.06142970      -8.75861048       0.85399506
 C             10.34747000       8.33446000      11.57854000      -0.06936670       0.28032055       0.07371639      -8.76267190       0.85408954
 C              7.52513000       8.49407000      11.94969000       0.13705105       0.24142061       0.04193477      -8.75895964       0.85396964
 C              8.28815000       9.66528000      11.88021000      -0.15880231      -0.21679025       0.06529048      -8.76093110       0.85397520
 C              9.72519000       9.58294000      11.69074000       0.15517974      -0.19152260       0.01364949      -8.75882031       0.85408450
 C              6.04281000       5.93248000       8.54449000       0.18621594      -0.18933242       0.06129735      -8.76009884       0.85394107
 C              5.48781000       6.88671000       9.48799000       0.06954945       0.02580067       0.24279055      -8.76324700       0.85397162
 C              7.19130000       5.20716000       8.87936000      -0.26471866       0.04643312      -0.03521628      -8.75960570       0.85407920
 C              6.09683000       7.07853000      10.73395000      -0.15079274      -0.03657769      -0.26500929      -8.76215723       0.85384843
 C              6.24545000       8.42128000      11.26831000      -0.15594758       0.23020609      -0.09719402      -8.76315642       0.85404744
 C              5.00000000       8.02796000       8.73412000      -0.04188259       0.26676683       0.10262949      -8.76065190       0.85401308
 C              5.14341000       9.32046000       9.25092000      -0.09930979      -0.22086347      -0.04998553      -8.75880555       0.85408342
 C              5.77472000       9.52231000      10.54328000       0.06252114      -0.22375903       0.17936067      -8.76251852       0.85401938
 C              8.09699000       5.52910000       6.60450000       0.00154038      -0.13662981       0.29265196      -8.76004837       0.85381601
 C              6.90696000       6.28678000       6.25862000      -0.26110545       0.02804538       0.13851517      -8.76506844       0.85407565
 C              8.23661000       5.00000000       7.89356000      -0.04716413       0.05406107      -0.28670065      -8.76140742       0.85397476
 C              5.89729000       6.48231000       7.20819000       0.16604911      -0.03246931      -0.20601403      -8.76308010       0.85397937
 C              5.25014000       7.77861000       7.32528000       0.08197921       0.21966585      -0.19907438      -8.76473166       0.85397970
 C              7.30750000       7.38081000       5.39018000      -0.15422053       0.19148185      -0.01427985      -8.75877643       0.85407898
 C              6.68539000       8.62933000       5.50232000       0.06821280      -0.27969039      -0.07418753      -8.76274236       0.85409230
 C              5.63711000       8.83263000       6.48814000      -0.08031487      -0.23733190       0.12262563      -8.76276240       0.85402605
 C             10.61144000       5.67417000       7.94558000      -0.22281597      -0.17355638       0.11885656      -8.76310094       0.85404640
 C             10.46803000       6.22407000       6.60851000      -0.26192402      -0.01578972      -0.15645328      -8.76280282       0.85392756
 C              9.51581000       5.07072000       8.57587000       0.30661634       0.10275319      -0.14098047      -8.76300735       0.85400528
 C              9.23212000       6.15584000       5.95340000       0.33185622      -0.01672297       0.07577468      -8.76360180       0.85403410
 C              8.74452000       7.29848000       5.20075000       0.16112178       0.21961388      -0.06592220      -8.76094942       0.85397518
 C             11.25804000       7.44140000       6.53754000      -0.06138408       0.22311087      -0.17860268      -8.76258793       0.85401177
 C             10.78743000       8.54244000       5.81255000       0.15551270      -0.22844582       0.09654394      -8.76312182       0.85404610
 C              9.50772000       8.46964000       5.13124000      -0.13917202      -0.24109257      -0.04175953      -8.75902735       0.85397400
 C             10.11096000       6.16490000      10.70855000      -0.14947764      -0.22809059      -0.11170379      -8.76450795       0.85416549
 C             11.24922000       6.78972000      10.05652000       0.06438196      -0.09573699      -0.29272414      -8.76014995       0.85395653
 C              9.26140000       5.31910000       9.98455000       0.20510339       0.18679951       0.17144023      -8.76361874       0.85396393
 C             11.49086000       6.55105000       8.69835000       0.00471255      -0.00911559       0.31443937      -8.75936823       0.85409401
 C             11.88928000       7.64325000       7.82994000       0.09989449       0.22289345       0.04959478      -8.75883164       0.85407944
 C             11.39574000       8.13108000      10.59273000       0.08074472       0.23753899      -0.12173904      -8.76284489       0.85402301
 C             11.78269000       9.18516000       9.75574000      -0.08160399      -0.21826540       0.19762503      -8.76475292       0.85397913
 C             12.03279000       8.93571000       8.34690000       0.04106536      -0.26608422      -0.10404979      -8.76065728       0.85401390
 C              9.74533000      10.63990000       6.00027000      -0.11444422       0.23049059       0.13551074      -8.76265776       0.85398045
 C             10.93620000       9.88519000       6.34702000       0.14644003       0.03581492       0.26230449      -8.76220146       0.85384544
 C             11.54502000      10.07699000       7.59304000      -0.06904606      -0.02510140      -0.24046681      -8.76326738       0.85397820
 C              9.20974000      11.55982000       6.90925000       0.09217423      -0.13588869      -0.21472855      -8.76132003       0.85401128
 C              6.92189000      10.79886000       6.37217000       0.14916550       0.22863620       0.11255274      -8.76446257       0.85416025
 C              7.47719000       9.84434000       5.42897000       0.26587686       0.00228199      -0.06062756      -8.75859898       0.85399212
 C              8.86285000       9.76560000       5.24659000      -0.26770071       0.05599316       0.00627144      -8.76375198       0.85396489
 C              7.77145000      11.64456000       7.09627000      -0.20614092      -0.18633689      -0.17197408      -8.76367298       0.85396044
 C              6.42112000      11.28960000       9.13514000       0.22234349       0.17215003      -0.11744212      -8.76303653       0.85404620
 C              5.54173000      10.41268000       8.38235000      -0.00277875       0.00806832      -0.31351700      -8.75949673       0.85409674
 C              5.78360000      10.17405000       7.02416000      -0.06677202       0.09548823       0.29741086      -8.76025367       0.85396315
 C              7.51683000      11.89289000       8.50490000      -0.30538909      -0.10117574       0.14063009      -8.76292613       0.85400301
 C              8.93558000      11.43467000      10.47645000      -0.00122611       0.13575905      -0.29167458      -8.75997573       0.85381398
 C              7.80046000      10.80795000      11.12755000      -0.33282495       0.01543950      -0.07728119      -8.76367950       0.85403666
 C              6.56458000      10.73974000      10.47227000       0.26381222       0.01447968       0.15809679      -8.76292492       0.85393602
 C              8.79593000      11.96360000       9.18735000       0.04854093      -0.05273912       0.28628312      -8.76137711       0.85397361
 C             10.98991000      11.03123000       8.53658000      -0.18568061       0.18865593      -0.06220552      -8.76010369       0.85394506
 C             11.13547000      10.48148000       9.87290000      -0.16725170       0.03145675       0.20463111      -8.76306412       0.85398101
 C             10.12566000      10.67705000      10.82237000       0.26326917      -0.02971966      -0.13932061      -8.76515111       0.85408165
 C              9.84135000      11.75643000       8.20170000       0.26660226      -0.04617054       0.03478376      -8.75953466       0.85408118
