    1000
 Properties=species:S:1:pos:R:3:forces:R:3:local_energy:R:1:hirshfeld_v:R:1 Lattice="18.2151240000       0.0000000000    0.0000000000    0.0000000000   18.2151240000    0.0000000000    0.0000000000    0.0000000000   18.2151240000" energy=-7715.776361 virial="1505.57723976       142.70038763     20.67394350    142.70038763   1631.84820278   -240.75483928     20.67394350   -240.75483928   1486.92650432" stress="-0.24911888          -0.02361178     -0.00342079     -0.02361178     -0.27001218      0.03983627     -0.00342079      0.03983627     -0.24603286" volume=6043.609514
 C              8.35934846       3.10682619       2.98379214      -4.59430811       1.35680054      -2.29923127      -7.94194632       0.91770677
 C              5.91582600       0.89333343       3.67235115      -3.90311378       4.05002701      -5.61661748      -7.89498476       0.92138202
 C              5.96669174       4.33999920       0.28897383       4.10415547       3.48284929       3.95891845      -8.46960872       0.91693578
 C              6.75613521       8.63649157       1.53293019      -0.47461067      -2.36142930       3.73772099      -8.63568362       0.91447894
 C              5.84463219       6.01508932       0.81335993      -4.82163943      -5.03464175       2.30345370      -6.63347310       0.91954298
 C              8.63925116       0.96398990       5.59148751       3.02404117       2.90734909       5.61179300      -8.09131713       0.91705436
 C              5.34793308       6.63465855       2.07477548      -1.78807703       2.50383595       0.02766958      -7.93450775       0.91808635
 C              2.65213116       1.97904590       3.77758903      -1.11975602       4.67031157       0.26191059      -8.28198995       0.91008402
 C              6.41502969       0.50814731       4.91399418       2.45235285      -2.99557672       0.15715981      -6.85175388       0.90956352
 C              4.18430542       0.13081191       0.53060656      -7.36416689      -2.73296578       5.08790123      -6.36864200       0.90775099
 C              1.20501242       7.52252745       7.85611923       0.95526831       9.56393243       3.57071807      -7.70598105       0.91359785
 C              2.38661841       0.00142989       4.84370202       5.39267889      -3.49079729      -0.26834186      -6.94591937       0.91719801
 C              6.86508898       6.60882950       0.31249867      11.21223395       4.58757833      -1.20405731      -6.98772711       0.92542594
 C              3.19257389       2.97317272       0.49341128      -2.65149783       0.41146860      -3.12172871      -6.23742469       0.91088222
 C              7.70704665       3.94912996       0.59706444      -4.23283225       1.08573619      -2.44394459      -7.51430253       0.91546612
 C              8.07495573       8.07008318       3.74463787       0.16554269       2.13392068      -0.80902042      -7.26293763       0.91900841
 C              2.24602497       1.28535023       5.23178435      -0.01215285       6.80645212      -0.78871588      -8.14317682       0.91412362
 C              6.52342790       7.75507083       6.75200949       3.61022531      -0.17166735      -0.82074805      -8.33006995       0.91749654
 C              2.11896537       8.02249617       5.81112547       0.40307911       2.83225267       3.95614255      -7.61759269       0.91375504
 C              3.30383187       7.51181695       3.36561757      -2.79279963      -1.26023280      -2.39680526      -6.65671929       0.91395174
 C              6.90350467       5.31816046       6.46059483       2.74527445       2.98324234      -0.72072684      -8.75293432       0.91459039
 C              6.04355045       5.39654014       3.94453975      -2.32750964      -0.97097508      -4.88306003      -8.19477068       0.91608045
 C              6.07887869       0.00795090       6.24465453      -1.51955925      -0.35005101      -1.89111482      -8.01021595       0.91519878
 C              3.89412939       4.19728370       0.85005430       3.99966022      -1.89282556       4.54059430      -8.00667973       0.91670630
 C              9.05672359       7.43020409       8.49744642      -9.52612128      -0.02753492      -0.52050775      -7.99930327       0.91632138
 C              5.19159267       3.42395150       1.18924723      -3.65391269       1.24411559      -7.55246286      -7.86220842       0.91489598
 C              7.26396376       2.29495990       7.54791022      -6.58141926       1.44327888      -3.38526208      -8.13401770       0.90784990
 C              8.91894439       8.75143811       6.25655811      -5.22997504       0.53331486       0.42040942      -8.51679572       0.90824935
 C              0.16529314       0.80755841       2.42479731       2.78530624      -3.14956153       9.32900399      -6.55829078       0.91635445
 C              6.94731205       0.76128289       2.30708207       1.14651074      -0.48207370       4.90208893      -8.58144397       0.91818048
 C              1.77676695       5.63142417       8.32613318       3.87776046       0.02439267      -1.38166652      -7.17680085       0.90725356
 C              3.86072285       8.54635403       4.19283921      -0.91904224       0.15594294      -1.39493686      -8.68737965       0.90733815
 C              3.51536410       8.04354375       6.39073072      -1.67124227      -2.02842508       1.83250317      -7.55534608       0.91708476
 C              5.47101268       7.02361520       7.62841196       2.65747566       1.25249674       1.62759125      -8.62582458       0.91610340
 C              8.41016865       2.14938463       6.70108000       1.15611791      -1.46693392       1.57662460      -7.21480759       0.91369369
 C              6.27904468       6.66750953       4.54184099       1.35295973       4.40572553       2.96149395      -8.03590001       0.91747453
 C              0.25349988       5.27834220       6.12123796       3.08186075      -2.47063957       9.49489324      -6.94631318       0.92445144
 C              1.33707207       8.72950710       2.37445070      -1.20004003       2.51359635      -1.42895267      -7.00024123       0.90813772
 C              5.09368638       0.88935343       7.48541413       1.17828253      -1.38791950       4.12376207      -7.09190975       0.91065998
 C              8.97522002       3.01991273       5.77250030       7.30873484       3.04057325      -1.56578680      -7.83124276       0.92008991
 C              7.63624447       7.49841973       1.27248124       0.13998290      -0.17952562       3.67837428      -8.02603126       0.92818553
 C              7.67297526       1.27919351       4.60898193      -1.26534271      -3.71562387      -3.21437739      -8.87983163       0.91388082
 C              6.32874465       8.78495394       0.18031151      -6.94657740       1.08904981       1.49802691      -8.32787440       0.91587785
 C              1.51064399       4.52405392       8.80993598      -0.58696134      -6.10148009       3.54598388      -6.58413426       0.91602531
 C              4.98173623       0.02755948       3.08614292      -6.42119600      -0.52618569      -0.34431327      -8.17109625       0.91515886
 C              2.11620578       7.64741945       0.08454550      -1.56388156       4.99883948      -3.20840963      -8.10575383       0.90608785
 C              0.49068812       2.22403021       2.50783095      -5.64277784       6.49625330       4.34374355      -8.51136023       0.91752481
 C              8.04015573       0.56145387       3.27396817       3.56841631      -2.71784367      -1.41667331      -8.74502026       0.91427824
 C              1.57107266       7.65272005       3.24220100       4.07373434       4.14035147       2.43250551      -8.48134099       0.90789385
 C              3.12226351       1.75595617       2.36408630       0.11994769      -1.44761398       3.55673978      -7.37089036       0.90960027
 C              5.96609064       2.49327707       3.59044684      -8.38371310      -1.77131274      -1.84361940      -8.43246913       0.91211445
 C              1.11819914       3.20565235       1.64755797       4.42697412      -1.77632978      -1.80584264      -8.37313931       0.91623020
 C              1.09592204       5.43527460       2.13277244       2.80041255       0.55073450       0.74937101      -7.73548170       0.90600488
 C              7.21359894       6.68913088       5.68393837      -4.41735608      -2.16215017       3.42278030      -8.24525360       0.91437309
 C              3.16535139       4.56323465       3.26716482      -1.10603418      -2.12259066      -0.82385169      -7.05505850       0.92426688
 C              7.25825332       2.54969841       3.93933022      12.95012785      -0.22238664       6.15746951      -6.87350063       0.92091154
 C              6.66485012       4.13365827       5.62837313      -1.15013706       0.81626660       6.27930357      -7.97832045       0.91294311
 C              5.88403151       5.61381925       7.50442161       2.38792157       6.30979410      -5.45609464      -7.12577314       0.91331742
 C              1.02999240       6.29921793       7.43802749       0.64359108      -5.12308122      -6.71350630      -6.42603858       0.91777021
 C              3.79428319       3.70562107       6.11882445      -8.73896089       5.24646231       0.98042599      -6.29860771       0.91304505
 C              5.92161841       8.03262378       2.53539954      -3.43712840      -0.56792566       3.58055882      -8.39426231       0.91889163
 C              2.67925348       3.67378104       8.37871114      -1.71588092      -1.43435972      -3.20348477      -8.88044489       0.91590164
 C              5.85097106       7.47756341       9.01444629      -3.94516573      -0.97062118      -5.82055876      -8.02975594       0.91876870
 C              5.92308473       3.46386995       2.31613498       3.57629329       0.12609751       8.81580624      -6.98774168       0.91835520
 C              8.50695472       6.72995097       5.20322303       3.48755995       3.26591534      -1.02270818      -7.87226311       0.91264898
 C              4.01168069       0.75493492       2.35258345       1.76880543      -1.91200165      -8.44860799      -6.33333757       0.90816302
 C              1.64661078       0.95836143       7.34550376       1.41980628       2.88490678       1.44085565      -7.61843644       0.90584223
 C              4.84733594       2.96443857       6.12668428       3.23389610     -12.84251676       3.28245191      -7.12658289       0.91630373
 C              3.44345079       8.21163291       8.86840653       1.89236940       3.19925444       3.72688480      -6.47667695       0.91738646
 C              8.23754392       5.16237562       7.16385344       0.58623504       1.25021810      -0.05397359      -6.65719726       0.91620764
 C              2.42198307       3.36186525       6.77456892       2.58978208       1.80602828      -0.02649129      -8.21698719       0.90854113
 C              0.11127619       5.58427432       4.77957568       3.18876013       3.01806034      -1.38216719      -7.21713148       0.91581915
 C              9.06275279       0.76437946       1.17830905       1.93753116       2.15047607      -7.82910982      -6.37316975       0.92068389
 C              9.10299911       7.68381326       0.87990889      -2.02182923      -4.24654412      -3.22596625      -8.03702622       0.91253125
 C              5.54187862       4.52294280       8.06053846      -5.88159022      -8.08453394       1.36442918      -6.90312508       0.91120540
 C              3.68438224       3.22897682       3.84146036      -1.66097034      -2.74651885       0.40010417      -7.52753888       0.90552193
 C              8.23352749       6.23672184       8.39420310      -1.90496958      -4.30157828      -1.70171859      -7.45507112       0.92451079
 C              3.61444527       5.24812331       2.01487505       3.39224993      -1.79221049       3.86308292      -7.01721000       0.92592905
 C              4.21163722       1.60290359       6.78384042      -3.07702310       3.90097937      -1.80542394      -7.74302364       0.89853180
 C              4.17011584       4.81494945       5.37243243      -2.23051396       7.78644000       2.36992919      -8.46873111       0.91659093
 C              7.32645985       3.37193822       1.91190495       2.83885235      -1.38279298      -0.70448282      -8.35179899       0.91381688
 C              7.33047629       5.53033934       3.30542569      -0.20135438      -3.36158877      -0.15137292      -7.30667399       0.91370517
 C              7.73662801       6.47596839       2.42258417       6.90044974       1.09304354      -1.52666680      -7.08622956       0.91687301
 C              8.50159036       5.28158449       0.26305371       1.12844388      -3.60105850       7.13681222      -6.92715489       0.92297532
 C              0.79296810       1.66010819       5.18723926      -0.82005474       2.92807392      -5.49555331      -7.93589787       0.91886322
 C              7.93647525       2.49460677       8.82323302       1.44259039       5.14429137      -2.41573865      -7.46075311       0.91708814
 C              6.50414719       1.02782480       7.46172536       3.32734569      -0.30494847      -0.79212514      -7.87540935       0.91635407
 C              5.18595509       0.84861530       0.01607485      -0.48189944       2.02100270      -1.00555671      -7.88367810       0.91180068
 C              3.80803561       6.68118908       7.12702246       1.87905325       3.61128415       3.73573851      -7.76008314       0.91411436
 C              1.36233645       1.06407290       0.67845872       0.48050613      -1.43784934      -1.51896735      -8.39426172       0.90869582
 C              4.35111953       6.14550050       6.03891471       1.29365048      -7.75344584      -3.10042557      -6.87258745       0.91334505
 C              1.25800022       8.35427555       0.99684088       2.59515239       1.54815879       1.86096062      -7.50620768       0.90911089
 C              2.71035581       1.97185093       6.49862800      -0.98280161      -9.35390014       3.26551795      -8.35424410       0.90935708
 C              1.21259902       4.02725463       6.07770381      -4.30116552      -1.73902287       0.92396953      -6.95638080       0.91823401
 C              3.38299480       5.90325757       8.35329193      -3.51895575       1.12266802      -0.81954824      -9.38652047       0.90758344
 C              1.11688765       1.58986156       8.54461449      -0.05854803       0.12039740      -7.14695538      -6.62857758       0.90742026
 C              1.22007633       2.27733677       3.65607594       1.92500806      -1.62722908       7.02446181      -5.83873933       0.91371877
 C              0.41518643       3.90892007       0.46747294       4.59014940      -2.67163931      -6.00869093      -7.76737882       0.92589321
 C              1.28602418       8.25778093       4.62422799       2.33786496      -2.84778760      -5.39077948      -8.12519987       0.91238474
 C              7.94399809       3.51703989       4.79573249      -2.93352114       4.70513334       4.17408351      -8.12895796       0.91353868
 C              5.21852374       6.94733937       5.36344326      -2.43461603      -2.01552408      -0.93700054      -6.77696782       0.91660075
 C              6.65334727       8.00104786       4.01803777       1.24548887      -1.58884909      -3.67633259      -8.09715111       0.92282264
 C              2.11505823       4.30851436       2.13534077      -6.54445687       4.15781335       2.15356281      -7.81020051       0.92277128
 C              0.22900054       2.87700598       8.24908321       0.76643862      -3.54878035       2.49023919      -7.75685688       0.92137731
 C              9.06153238       8.06204121       4.97881270      -4.52796447      -3.27878410       1.19198184      -8.13552207       0.91012032
 C              1.69379706       5.65246263       4.36359689      -2.14170568       1.63483354       0.53139937      -7.39943802       0.91232516
 C              8.34960337       4.78894736       4.01775544      -0.56095309      -4.58594176      -2.37613827      -8.04927409       0.90846007
 C              9.07461995       6.02763954       1.54838572      -2.64252686       0.70800049      -2.86094774      -7.96198833       0.91625454
 C              5.48737897       2.02758921       0.81266776       2.90646319       0.36189258      -0.30090394      -7.42121387       0.90984105
 C              5.47575772       4.38452607       4.81812799       0.46125113      -0.21902339      -1.18867523      -9.03530594       0.91739956
 C              7.98399851       1.25607852       0.49578835      -3.14473699       3.54933461      -5.93501981      -8.54695188       0.91178474
 C              1.28534112       6.33036580       3.15444053       1.18605021      -3.72091701       1.77429314      -7.28834812       0.91089312
 C              3.76680568       6.90565406       1.96595833      -1.11053700      -4.00019939      -1.66281790      -7.71452946       0.91595627
 C              6.01254831       3.39779459       7.04350612       2.60160529      -1.53154607      -3.21528703      -8.85023936       0.90227167
 C              4.90995953       2.91576776       4.61083077       2.69181239       4.04387652      -3.58646526      -8.90701985       0.90776684
 C              4.69083159       8.17017529       5.44941865      -5.25483049       5.99849192       1.39987798      -7.76966616       0.91846891
 C              5.01027022       5.59038549       2.96976649      -1.18386939      -1.32049066      -3.60163144      -6.19813814       0.92364770
 C              3.28068955       6.88050808       0.37709860       2.17722612       1.36926862       1.34519058      -6.92741890       0.91562990
 C              2.29620764       2.19486780       1.29786402      -1.29339905      -1.15414280      -1.52585254      -8.89514894       0.91096722
 C              7.86404281       8.19661454       7.50795535       4.37141586       3.67440778       0.75019136      -8.06705278       0.91320666
 C              7.28883651       0.24392783       8.44931296       4.36531840       0.37110448      -2.18496666      -8.35238085       0.90928889
 C              3.00047719       5.42967345       4.57430944       1.11949485      -1.98719038      -3.07318943      -7.14445878       0.91017342
 C              6.93939758       1.91383576       1.38696329      -1.99844767      -4.65540458       0.05013149      -8.57784943       0.92330366
 C              1.09663243       8.80526380       6.89768494       6.95316640      -3.73709286       1.44314992      -9.16952987       0.90622558
 C              3.90606030       4.57209631       8.50600753       2.23941361       1.27593647      -0.18006343      -8.70178484       0.90958476
 C              8.35934846       3.10682619      12.09135414      -4.59430811       1.35680054      -2.29923128      -7.94194632       0.91770677
 C              5.91582600       0.89333343      12.77991315      -3.90311378       4.05002701      -5.61661748      -7.89498476       0.92138202
 C              5.96669174       4.33999920       9.39653583       4.10415546       3.48284928       3.95891845      -8.46960872       0.91693578
 C              6.75613521       8.63649157      10.64049219      -0.47461067      -2.36142930       3.73772098      -8.63568362       0.91447894
 C              5.84463219       6.01508932       9.92092193      -4.82163944      -5.03464174       2.30345369      -6.63347311       0.91954298
 C              8.63925116       0.96398990      14.69904951       3.02404117       2.90734909       5.61179299      -8.09131712       0.91705436
 C              5.34793308       6.63465855      11.18233748      -1.78807703       2.50383595       0.02766958      -7.93450775       0.91808635
 C              2.65213116       1.97904590      12.88515103      -1.11975602       4.67031156       0.26191059      -8.28198995       0.91008402
 C              6.41502969       0.50814731      14.02155618       2.45235284      -2.99557670       0.15715980      -6.85175388       0.90956352
 C              4.18430542       0.13081191       9.63816856      -7.36416689      -2.73296579       5.08790121      -6.36864199       0.90775099
 C              1.20501242       7.52252745      16.96368123       0.95526831       9.56393243       3.57071807      -7.70598105       0.91359785
 C              2.38661841       0.00142989      13.95126402       5.39267889      -3.49079730      -0.26834186      -6.94591936       0.91719801
 C              6.86508898       6.60882950       9.42006067      11.21223395       4.58757833      -1.20405731      -6.98772712       0.92542594
 C              3.19257389       2.97317272       9.60097328      -2.65149783       0.41146861      -3.12172871      -6.23742469       0.91088222
 C              7.70704665       3.94912996       9.70462644      -4.23283224       1.08573620      -2.44394459      -7.51430254       0.91546612
 C              8.07495573       8.07008318      12.85219987       0.16554270       2.13392068      -0.80902041      -7.26293763       0.91900841
 C              2.24602497       1.28535023      14.33934635      -0.01215285       6.80645212      -0.78871588      -8.14317681       0.91412362
 C              6.52342790       7.75507083      15.85957149       3.61022531      -0.17166736      -0.82074804      -8.33006996       0.91749654
 C              2.11896537       8.02249617      14.91868747       0.40307912       2.83225267       3.95614255      -7.61759269       0.91375504
 C              3.30383187       7.51181695      12.47317957      -2.79279963      -1.26023281      -2.39680526      -6.65671929       0.91395174
 C              6.90350467       5.31816046      15.56815683       2.74527445       2.98324234      -0.72072684      -8.75293432       0.91459039
 C              6.04355045       5.39654014      13.05210175      -2.32750964      -0.97097508      -4.88306004      -8.19477068       0.91608045
 C              6.07887869       0.00795090      15.35221653      -1.51955925      -0.35005100      -1.89111482      -8.01021595       0.91519878
 C              3.89412939       4.19728370       9.95761630       3.99966022      -1.89282554       4.54059430      -8.00667973       0.91670630
 C              9.05672359       7.43020409      17.60500842      -9.52612128      -0.02753491      -0.52050774      -7.99930327       0.91632138
 C              5.19159267       3.42395150      10.29680923      -3.65391270       1.24411560      -7.55246285      -7.86220842       0.91489598
 C              7.26396376       2.29495990      16.65547222      -6.58141925       1.44327888      -3.38526208      -8.13401770       0.90784990
 C              8.91894439       8.75143811      15.36412011      -5.22997504       0.53331485       0.42040943      -8.51679572       0.90824935
 C              0.16529314       0.80755841      11.53235931       2.78530624      -3.14956153       9.32900400      -6.55829079       0.91635445
 C              6.94731205       0.76128289      11.41464407       1.14651074      -0.48207370       4.90208893      -8.58144397       0.91818048
 C              1.77676695       5.63142417      17.43369518       3.87776045       0.02439268      -1.38166654      -7.17680084       0.90725356
 C              3.86072285       8.54635403      13.30040121      -0.91904224       0.15594295      -1.39493687      -8.68737965       0.90733815
 C              3.51536410       8.04354375      15.49829272      -1.67124227      -2.02842508       1.83250317      -7.55534608       0.91708476
 C              5.47101268       7.02361520      16.73597396       2.65747566       1.25249674       1.62759126      -8.62582458       0.91610340
 C              8.41016865       2.14938463      15.80864200       1.15611792      -1.46693391       1.57662459      -7.21480758       0.91369368
 C              6.27904468       6.66750953      13.64940299       1.35295973       4.40572553       2.96149394      -8.03590000       0.91747453
 C              0.25349988       5.27834220      15.22879996       3.08186075      -2.47063957       9.49489324      -6.94631318       0.92445144
 C              1.33707207       8.72950710      11.48201270      -1.20004002       2.51359635      -1.42895267      -7.00024123       0.90813772
 C              5.09368638       0.88935343      16.59297613       1.17828253      -1.38791950       4.12376208      -7.09190975       0.91065998
 C              8.97522002       3.01991273      14.88006230       7.30873484       3.04057325      -1.56578681      -7.83124276       0.92008991
 C              7.63624447       7.49841973      10.38004324       0.13998290      -0.17952562       3.67837428      -8.02603126       0.92818553
 C              7.67297526       1.27919351      13.71654393      -1.26534271      -3.71562387      -3.21437740      -8.87983163       0.91388082
 C              6.32874465       8.78495394       9.28787351      -6.94657740       1.08904982       1.49802691      -8.32787440       0.91587785
 C              1.51064399       4.52405392      17.91749798      -0.58696134      -6.10148009       3.54598388      -6.58413426       0.91602531
 C              4.98173623       0.02755948      12.19370492      -6.42119600      -0.52618569      -0.34431328      -8.17109625       0.91515886
 C              2.11620578       7.64741945       9.19210750      -1.56388156       4.99883948      -3.20840963      -8.10575382       0.90608785
 C              0.49068812       2.22403021      11.61539295      -5.64277784       6.49625330       4.34374355      -8.51136023       0.91752481
 C              8.04015573       0.56145387      12.38153017       3.56841631      -2.71784367      -1.41667330      -8.74502027       0.91427824
 C              1.57107266       7.65272005      12.34976300       4.07373435       4.14035147       2.43250551      -8.48134099       0.90789385
 C              3.12226351       1.75595617      11.47164830       0.11994769      -1.44761398       3.55673978      -7.37089037       0.90960027
 C              5.96609064       2.49327707      12.69800884      -8.38371311      -1.77131273      -1.84361941      -8.43246912       0.91211445
 C              1.11819914       3.20565235      10.75511997       4.42697411      -1.77632977      -1.80584264      -8.37313931       0.91623020
 C              1.09592204       5.43527460      11.24033444       2.80041256       0.55073449       0.74937101      -7.73548170       0.90600488
 C              7.21359894       6.68913088      14.79150037      -4.41735608      -2.16215017       3.42278030      -8.24525360       0.91437309
 C              3.16535139       4.56323465      12.37472682      -1.10603418      -2.12259066      -0.82385168      -7.05505850       0.92426687
 C              7.25825332       2.54969841      13.04689222      12.95012786      -0.22238663       6.15746950      -6.87350064       0.92091154
 C              6.66485012       4.13365827      14.73593513      -1.15013707       0.81626659       6.27930357      -7.97832045       0.91294311
 C              5.88403151       5.61381925      16.61198361       2.38792157       6.30979410      -5.45609464      -7.12577314       0.91331742
 C              1.02999240       6.29921793      16.54558949       0.64359110      -5.12308123      -6.71350629      -6.42603858       0.91777021
 C              3.79428319       3.70562107      15.22638645      -8.73896089       5.24646231       0.98042599      -6.29860770       0.91304505
 C              5.92161841       8.03262378      11.64296154      -3.43712840      -0.56792565       3.58055880      -8.39426232       0.91889163
 C              2.67925348       3.67378104      17.48627314      -1.71588092      -1.43435972      -3.20348475      -8.88044489       0.91590164
 C              5.85097106       7.47756341      18.12200829      -3.94516573      -0.97062117      -5.82055875      -8.02975594       0.91876870
 C              5.92308473       3.46386995      11.42369698       3.57629329       0.12609751       8.81580624      -6.98774169       0.91835520
 C              8.50695472       6.72995097      14.31078503       3.48755995       3.26591534      -1.02270817      -7.87226311       0.91264898
 C              4.01168069       0.75493492      11.46014545       1.76880543      -1.91200164      -8.44860800      -6.33333757       0.90816302
 C              1.64661078       0.95836143      16.45306576       1.41980628       2.88490678       1.44085566      -7.61843645       0.90584223
 C              4.84733594       2.96443857      15.23424628       3.23389611     -12.84251675       3.28245191      -7.12658289       0.91630373
 C              3.44345079       8.21163291      17.97596853       1.89236940       3.19925444       3.72688480      -6.47667694       0.91738646
 C              8.23754392       5.16237562      16.27141544       0.58623504       1.25021809      -0.05397359      -6.65719726       0.91620764
 C              2.42198307       3.36186525      15.88213092       2.58978208       1.80602829      -0.02649129      -8.21698719       0.90854113
 C              0.11127619       5.58427432      13.88713768       3.18876013       3.01806034      -1.38216719      -7.21713148       0.91581915
 C              9.06275279       0.76437946      10.28587105       1.93753115       2.15047608      -7.82910982      -6.37316975       0.92068389
 C              9.10299911       7.68381326       9.98747089      -2.02182923      -4.24654412      -3.22596624      -8.03702622       0.91253125
 C              5.54187862       4.52294280      17.16810046      -5.88159022      -8.08453394       1.36442918      -6.90312508       0.91120540
 C              3.68438224       3.22897682      12.94902236      -1.66097034      -2.74651884       0.40010415      -7.52753888       0.90552193