      60
 Properties=species:S:1:pos:R:3:forces:R:3:local_energy:R:1:hirshfeld_v:R:1 Lattice="200.0000000000      0.0000000000    0.0000000000    0.0000000000  200.0000000000    0.0000000000    0.0000000000    0.0000000000  200.0000000000" energy=-535.740025 virial="-0.36262334          -0.17973803      0.04366863     -0.17973803     -0.67354439      0.01270622      0.04366863      0.01270622     -0.43647927" stress="0.00000005            0.00000002     -0.00000001      0.00000002      0.00000008     -0.00000000     -0.00000001     -0.00000000      0.00000005" volume=8000000.000000
 C              7.28766000       6.32384000      11.08071000       0.00567019       0.06245714       0.02086576      -8.92996485       0.85398012
 C              8.17010000       7.19820000      11.83431000      -0.06542251       0.00269656      -0.05366969      -8.92873573       0.85395875
 C              7.82312000       5.40379000      10.17174000       0.06442058      -0.00548094      -0.04843179      -8.92753310       0.85401314
 C              9.55575000       7.11947000      11.65181000       0.03664815       0.01488948      -0.07242701      -8.92742043       0.85399506
 C             10.34747000       8.33446000      11.57854000       0.03292197      -0.03801520      -0.04699784      -8.93155205       0.85408954
 C              7.52513000       8.49407000      11.94969000      -0.02233631      -0.05057816      -0.04029805      -8.93102174       0.85396964
 C              8.28815000       9.66528000      11.88021000       0.04338707       0.03566965      -0.05314431      -8.92944543       0.85397520
 C              9.72519000       9.58294000      11.69074000      -0.03689315       0.08226089      -0.04078087      -8.92728492       0.85408450
 C              6.04281000       5.93248000       8.54449000      -0.02232148       0.08038655      -0.01643794      -8.93049157       0.85394107
 C              5.48781000       6.88671000       9.48799000      -0.00914988       0.01809845      -0.07961741      -8.93110374       0.85397162
 C              7.19130000       5.20716000       8.87936000       0.06511675      -0.04729960       0.04624848      -8.93626906       0.85407920
 C              6.09683000       7.07853000      10.73395000       0.07550331       0.05211692      -0.02970463      -8.92449736       0.85384843
 C              6.24545000       8.42128000      11.26831000       0.02229031      -0.05035740       0.01661345      -8.93288935       0.85404744
 C              5.00000000       8.02796000       8.73412000       0.03228567      -0.05629538      -0.04089716      -8.93112411       0.85401308
 C              5.14341000       9.32046000       9.25092000       0.02300340       0.08392271       0.05623187      -8.93366679       0.85408342
 C              5.77472000       9.52231000      10.54328000       0.02576377       0.01553765      -0.06576121      -8.92675487       0.85401938
 C              8.09699000       5.52910000       6.60450000      -0.01472213       0.08913176       0.04164436      -8.92565038       0.85381601
 C              6.90696000       6.28678000       6.25862000       0.03894215       0.03429264      -0.03846396      -8.93050224       0.85407565
 C              8.23661000       5.00000000       7.89356000      -0.00591452       0.01458605       0.04441191      -8.93213483       0.85397476
 C              5.89729000       6.48231000       7.20819000      -0.01021943       0.07495224       0.06143433      -8.92530464       0.85397937
 C              5.25014000       7.77861000       7.32528000       0.07954769      -0.01781719       0.03907874      -8.92283533       0.85397970
 C              7.30750000       7.38081000       5.39018000       0.03814242      -0.08178694       0.04064034      -8.92742195       0.85407898
 C              6.68539000       8.62933000       5.50232000      -0.03432248       0.03849051       0.04709578      -8.93168464       0.85409230
 C              5.63711000       8.83263000       6.48814000       0.07694803       0.01403983      -0.02913049      -8.92664932       0.85402605
 C             10.61144000       5.67417000       7.94558000      -0.01032412       0.05216206      -0.03058379      -8.92647050       0.85404640
 C             10.46803000       6.22407000       6.60851000      -0.01954182       0.07274218       0.06454154      -8.92125157       0.85392756
 C              9.51581000       5.07072000       8.57587000      -0.00626587       0.05060436       0.00670031      -8.92929863       0.85400528
 C              9.23212000       6.15584000       5.95340000      -0.00444302       0.01819646      -0.02233876      -8.93568125       0.85403410
 C              8.74452000       7.29848000       5.20075000      -0.04096680      -0.03322834       0.05237806      -8.92946787       0.85397518
 C             11.25804000       7.44140000       6.53754000      -0.02518077      -0.01592901       0.06678906      -8.92688582       0.85401177
 C             10.78743000       8.54244000       5.81255000      -0.02281878       0.05178228      -0.01692903      -8.93298763       0.85404610
 C              9.50772000       8.46964000       5.13124000       0.02055064       0.05102708       0.03991603      -8.93076185       0.85397400
 C             10.11096000       6.16490000      10.70855000       0.02034924       0.03693871       0.02891841      -8.93140652       0.85416549
 C             11.24922000       6.78972000      10.05652000      -0.08749833       0.03172645      -0.00629167      -8.92622952       0.85395653
 C              9.26140000       5.31910000       9.98455000      -0.02737820       0.08174439      -0.05180486      -8.92182189       0.85396393
 C             11.49086000       6.55105000       8.69835000      -0.01829371      -0.00969537      -0.02876189      -8.93515453       0.85409401
 C             11.88928000       7.64325000       7.82994000      -0.02218930      -0.08215959      -0.05668960      -8.93366196       0.85407944
 C             11.39574000       8.13108000      10.59273000      -0.07713291      -0.01352104       0.02975488      -8.92690545       0.85402301
 C             11.78269000       9.18516000       9.75574000      -0.07943869       0.01862972      -0.04081162      -8.92293756       0.85397913
 C             12.03279000       8.93571000       8.34690000      -0.03262010       0.05715928       0.03895405      -8.93091697       0.85401390
 C              9.74533000      10.63990000       6.00027000      -0.00605618      -0.06407129      -0.02228128      -8.92994089       0.85398045
 C             10.93620000       9.88519000       6.34702000      -0.07960271      -0.05192375       0.02744028      -8.92423599       0.85384544
 C             11.54502000      10.07699000       7.59304000       0.01000946      -0.01775350       0.08153076      -8.93111857       0.85397820
 C              9.20974000      11.55982000       6.90925000      -0.06555242       0.00697080       0.04863715      -8.92765142       0.85401128
 C              6.92189000      10.79886000       6.37217000      -0.02004935      -0.03662321      -0.02820475      -8.93154758       0.85416025
 C              7.47719000       9.84434000       5.42897000      -0.03860319      -0.01658732       0.07296464      -8.92722577       0.85399212
 C              8.86285000       9.76560000       5.24659000       0.06601652      -0.00448395       0.05352861      -8.92864836       0.85396489
 C              7.77145000      11.64456000       7.09627000       0.02603629      -0.08155114       0.05187690      -8.92195910       0.85396044
 C              6.42112000      11.28960000       9.13514000       0.01004275      -0.05384951       0.03203021      -8.92641508       0.85404620
 C              5.54173000      10.41268000       8.38235000       0.02023750       0.00949517       0.02900193      -8.93473653       0.85409674
 C              5.78360000      10.17405000       7.02416000       0.08488091      -0.03264969       0.01093769      -8.92631929       0.85396315
 C              7.51683000      11.89289000       8.50490000       0.00796385      -0.04875548      -0.00649143      -8.92946167       0.85400301
 C              8.93558000      11.43467000      10.47645000       0.01490217      -0.09015333      -0.04077735      -8.92575134       0.85381398
 C              7.80046000      10.80795000      11.12755000       0.00307581      -0.01880763       0.02057438      -8.93542675       0.85403666
 C              6.56458000      10.73974000      10.47227000       0.02123083      -0.07452925      -0.06217819      -8.92116545       0.85393602
 C              8.79593000      11.96360000       9.18735000       0.00781316      -0.01340006      -0.04516266      -8.93234288       0.85397361
 C             10.98991000      11.03123000       8.53658000       0.02281669      -0.08123800       0.01624141      -8.93038807       0.85394506
 C             11.13547000      10.48148000       9.87290000       0.00882309      -0.07516894      -0.06258230      -8.92499012       0.85398101
 C             10.12566000      10.67705000      10.82237000      -0.03660518      -0.03638328       0.03799671      -8.93049841       0.85408165
 C              9.84135000      11.75643000       8.20170000      -0.06347765       0.04738525      -0.04732664      -8.93642331       0.85408118
