     125
 Properties=species:S:1:pos:R:3:forces:R:3:local_energy:R:1:hirshfeld_v:R:1 Lattice="9.1075620000        0.0000000000    0.0000000000    0.0000000000    9.1075620000    0.0000000000    0.0000000000    0.0000000000    9.1075620000" energy=-944.299507 virial="188.19717501         17.83754881      2.58424486     17.83754881    203.98105071    -30.09435736      2.58424486    -30.09435736    185.86583359" stress="-0.24911891          -0.02361178     -0.00342080     -0.02361178     -0.27001222      0.03983627     -0.00342080      0.03983627     -0.24603288" volume=755.451189
 C              8.35934846       3.10682619       2.98379214      -4.59430784       1.35680068      -2.29923101      -7.78056611       0.91770678
 C              5.91582600       0.89333343       3.67235115      -3.90311404       4.05002661      -5.61661703      -7.73360453       0.92138203
 C              5.96669174       4.33999920       0.28897383       4.10415557       3.48284872       3.95891846      -8.30822854       0.91693579
 C              6.75613521       8.63649157       1.53293019      -0.47461044      -2.36142924       3.73772107      -8.47430318       0.91447894
 C              5.84463219       6.01508932       0.81335993      -4.82163958      -5.03464164       2.30345347      -6.47209263       0.91954298
 C              8.63925116       0.96398990       5.59148751       3.02404092       2.90734894       5.61179287      -7.92993680       0.91705437
 C              5.34793308       6.63465855       2.07477548      -1.78807638       2.50383612       0.02766958      -7.77312746       0.91808636
 C              2.65213116       1.97904590       3.77758903      -1.11975586       4.67031148       0.26191047      -8.12060981       0.91008404
 C              6.41502969       0.50814731       4.91399418       2.45235270      -2.99557639       0.15715936      -6.69037356       0.90956352
 C              4.18430542       0.13081191       0.53060656      -7.36416657      -2.73296561       5.08790121      -6.20726184       0.90775100
 C              1.20501242       7.52252745       7.85611923       0.95526854       9.56393250       3.57071793      -7.54460068       0.91359786
 C              2.38661841       0.00142989       4.84370202       5.39267930      -3.49079745      -0.26834178      -6.78453903       0.91719801
 C              6.86508898       6.60882950       0.31249867      11.21223372       4.58757807      -1.20405708      -6.82634671       0.92542595
 C              3.19257389       2.97317272       0.49341128      -2.65149771       0.41146848      -3.12172830      -6.07604445       0.91088222
 C              7.70704665       3.94912996       0.59706444      -4.23283231       1.08573583      -2.44394450      -7.35292227       0.91546613
 C              8.07495573       8.07008318       3.74463787       0.16554269       2.13392060      -0.80902053      -7.10155730       0.91900842
 C              2.24602497       1.28535023       5.23178435      -0.01215271       6.80645177      -0.78871585      -7.98179651       0.91412362
 C              6.52342790       7.75507083       6.75200949       3.61022507      -0.17166738      -0.82074789      -8.16868960       0.91749655
 C              2.11896537       8.02249617       5.81112547       0.40307918       2.83225255       3.95614285      -7.45621237       0.91375505
 C              3.30383187       7.51181695       3.36561757      -2.79279988      -1.26023264      -2.39680521      -6.49533896       0.91395174
 C              6.90350467       5.31816046       6.46059483       2.74527440       2.98324246      -0.72072685      -8.59155400       0.91459040
 C              6.04355045       5.39654014       3.94453975      -2.32750903      -0.97097472      -4.88305972      -8.03339031       0.91608046
 C              6.07887869       0.00795090       6.24465453      -1.51955955      -0.35005101      -1.89111485      -7.84883570       0.91519879
 C              3.89412939       4.19728370       0.85005430       3.99966056      -1.89282581       4.54059410      -7.84529935       0.91670630
 C              9.05672359       7.43020409       8.49744642      -9.52612108      -0.02753501      -0.52050772      -7.83792307       0.91632139
 C              5.19159267       3.42395150       1.18924723      -3.65391242       1.24411548      -7.55246323      -7.70082813       0.91489599
 C              7.26396376       2.29495990       7.54791022      -6.58141881       1.44327909      -3.38526208      -7.97263746       0.90784990
 C              8.91894439       8.75143811       6.25655811      -5.22997473       0.53331472       0.42040969      -8.35541536       0.90824935
 C              0.16529314       0.80755841       2.42479731       2.78530599      -3.14956144       9.32900365      -6.39691045       0.91635446
 C              6.94731205       0.76128289       2.30708207       1.14651102      -0.48207384       4.90208911      -8.42006353       0.91818049
 C              1.77676695       5.63142417       8.32613318       3.87776057       0.02439257      -1.38166685      -7.01542048       0.90725357
 C              3.86072285       8.54635403       4.19283921      -0.91904262       0.15594326      -1.39493663      -8.52599935       0.90733816
 C              3.51536410       8.04354375       6.39073072      -1.67124193      -2.02842480       1.83250311      -7.39396581       0.91708477
 C              5.47101268       7.02361520       7.62841196       2.65747533       1.25249638       1.62759075      -8.46444423       0.91610341
 C              8.41016865       2.14938463       6.70108000       1.15611781      -1.46693377       1.57662466      -7.05342731       0.91369370
 C              6.27904468       6.66750953       4.54184099       1.35295994       4.40572501       2.96149333      -7.87451961       0.91747453
 C              0.25349988       5.27834220       6.12123796       3.08186065      -2.47063980       9.49489293      -6.78493301       0.92445145
 C              1.33707207       8.72950710       2.37445070      -1.20004032       2.51359634      -1.42895264      -6.83886099       0.90813773
 C              5.09368638       0.88935343       7.48541413       1.17828200      -1.38791897       4.12376205      -6.93052946       0.91065999
 C              8.97522002       3.01991273       5.77250030       7.30873447       3.04057369      -1.56578692      -7.66986247       0.92008991
 C              7.63624447       7.49841973       1.27248124       0.13998253      -0.17952608       3.67837414      -7.86465090       0.92818553
 C              7.67297526       1.27919351       4.60898193      -1.26534248      -3.71562404      -3.21437705      -8.71845130       0.91388083
 C              6.32874465       8.78495394       0.18031151      -6.94657750       1.08905013       1.49802685      -8.16649398       0.91587786
 C              1.51064399       4.52405392       8.80993598      -0.58696103      -6.10148016       3.54598391      -6.42275383       0.91602531
 C              4.98173623       0.02755948       3.08614292      -6.42119629      -0.52618628      -0.34431338      -8.00971597       0.91515887
 C              2.11620578       7.64741945       0.08454550      -1.56388149       4.99883928      -3.20840951      -7.94437353       0.90608786
 C              0.49068812       2.22403021       2.50783095      -5.64277731       6.49625302       4.34374364      -8.34997988       0.91752481
 C              8.04015573       0.56145387       3.27396817       3.56841609      -2.71784344      -1.41667312      -8.58363993       0.91427825
 C              1.57107266       7.65272005       3.24220100       4.07373466       4.14035187       2.43250558      -8.31996075       0.90789386
 C              3.12226351       1.75595617       2.36408630       0.11994722      -1.44761389       3.55673929      -7.20951000       0.90960027
 C              5.96609064       2.49327707       3.59044684      -8.38371272      -1.77131306      -1.84361931      -8.27108877       0.91211446
 C              1.11819914       3.20565235       1.64755797       4.42697408      -1.77632994      -1.80584214      -8.21175892       0.91623020
 C              1.09592204       5.43527460       2.13277244       2.80041258       0.55073389       0.74937088      -7.57410140       0.90600489
 C              7.21359894       6.68913088       5.68393837      -4.41735562      -2.16214989       3.42278042      -8.08387322       0.91437309
 C              3.16535139       4.56323465       3.26716482      -1.10603457      -2.12259031      -0.82385121      -6.89367819       0.92426688
 C              7.25825332       2.54969841       3.93933022      12.95012725      -0.22238672       6.15746930      -6.71212022       0.92091154
 C              6.66485012       4.13365827       5.62837313      -1.15013701       0.81626620       6.27930367      -7.81694008       0.91294311
 C              5.88403151       5.61381925       7.50442161       2.38792152       6.30979422      -5.45609400      -6.96439276       0.91331743
 C              1.02999240       6.29921793       7.43802749       0.64359093      -5.12308173      -6.71350646      -6.26465833       0.91777022
 C              3.79428319       3.70562107       6.11882445      -8.73896109       5.24646219       0.98042623      -6.13722739       0.91304506
 C              5.92161841       8.03262378       2.53539954      -3.43712797      -0.56792569       3.58055853      -8.23288188       0.91889163
 C              2.67925348       3.67378104       8.37871114      -1.71588137      -1.43435975      -3.20348510      -8.71906462       0.91590165
 C              5.85097106       7.47756341       9.01444629      -3.94516604      -0.97062068      -5.82055835      -7.86837560       0.91876870
 C              5.92308473       3.46386995       2.31613498       3.57629322       0.12609765       8.81580618      -6.82636141       0.91835521
 C              8.50695472       6.72995097       5.20322303       3.48755947       3.26591528      -1.02270866      -7.71088276       0.91264899
 C              4.01168069       0.75493492       2.35258345       1.76880516      -1.91200181      -8.44860777      -6.17195738       0.90816303
 C              1.64661078       0.95836143       7.34550376       1.41980628       2.88490699       1.44085544      -7.45705619       0.90584223
 C              4.84733594       2.96443857       6.12668428       3.23389595     -12.84251682       3.28245218      -6.96520262       0.91630374
 C              3.44345079       8.21163291       8.86840653       1.89237011       3.19925432       3.72688434      -6.31529683       0.91738647
 C              8.23754392       5.16237562       7.16385344       0.58623514       1.25021842      -0.05397402      -6.49581687       0.91620764
 C              2.42198307       3.36186525       6.77456892       2.58978205       1.80602796      -0.02649098      -8.05560691       0.90854113
 C              0.11127619       5.58427432       4.77957568       3.18876034       3.01805989      -1.38216701      -7.05575110       0.91581915
 C              9.06275279       0.76437946       1.17830905       1.93753073       2.15047547      -7.82910973      -6.21178944       0.92068390
 C              9.10299911       7.68381326       0.87990889      -2.02182893      -4.24654429      -3.22596601      -7.87564587       0.91253125
 C              5.54187862       4.52294280       8.06053846      -5.88159025      -8.08453392       1.36442917      -6.74174474       0.91120540
 C              3.68438224       3.22897682       3.84146036      -1.66097015      -2.74651854       0.40010430      -7.36615862       0.90552194
 C              8.23352749       6.23672184       8.39420310      -1.90496936      -4.30157839      -1.70171883      -7.29369075       0.92451079
 C              3.61444527       5.24812331       2.01487505       3.39225019      -1.79221001       3.86308272      -6.85582977       0.92592906
 C              4.21163722       1.60290359       6.78384042      -3.07702293       3.90097921      -1.80542401      -7.58164339       0.89853181
 C              4.17011584       4.81494945       5.37243243      -2.23051430       7.78644000       2.36992840      -8.30735076       0.91659093
 C              7.32645985       3.37193822       1.91190495       2.83885200      -1.38279281      -0.70448313      -8.19041867       0.91381689
 C              7.33047629       5.53033934       3.30542569      -0.20135455      -3.36158877      -0.15137276      -7.14529355       0.91370517
 C              7.73662801       6.47596839       2.42258417       6.90044917       1.09304389      -1.52666635      -6.92484931       0.91687302
 C              8.50159036       5.28158449       0.26305371       1.12844399      -3.60105824       7.13681201      -6.76577460       0.92297533
 C              0.79296810       1.66010819       5.18723926      -0.82005438       2.92807399      -5.49555287      -7.77451752       0.91886322
 C              7.93647525       2.49460677       8.82323302       1.44259049       5.14429116      -2.41573915      -7.29937287       0.91708815
 C              6.50414719       1.02782480       7.46172536       3.32734574      -0.30494806      -0.79212534      -7.71402900       0.91635407
 C              5.18595509       0.84861530       0.01607485      -0.48190007       2.02100271      -1.00555713      -7.72229787       0.91180069
 C              3.80803561       6.68118908       7.12702246       1.87905313       3.61128422       3.73573875      -7.59870287       0.91411437
 C              1.36233645       1.06407290       0.67845872       0.48050608      -1.43784920      -1.51896727      -8.23288144       0.90869583
 C              4.35111953       6.14550050       6.03891471       1.29364992      -7.75344564      -3.10042533      -6.71120716       0.91334506
 C              1.25800022       8.35427555       0.99684088       2.59515217       1.54815873       1.86096070      -7.34482742       0.90911090
 C              2.71035581       1.97185093       6.49862800      -0.98280127      -9.35390007       3.26551843      -8.19286386       0.90935708
 C              1.21259902       4.02725463       6.07770381      -4.30116544      -1.73902232       0.92396959      -6.79500056       0.91823402
 C              3.38299480       5.90325757       8.35329193      -3.51895613       1.12266831      -0.81954830      -9.22514014       0.90758344
 C              1.11688765       1.58986156       8.54461449      -0.05854773       0.12039765      -7.14695502      -6.46719736       0.90742026
 C              1.22007633       2.27733677       3.65607594       1.92500831      -1.62722881       7.02446136      -5.67735913       0.91371878
 C              0.41518643       3.90892007       0.46747294       4.59014954      -2.67163859      -6.00869035      -7.60599858       0.92589322
 C              1.28602418       8.25778093       4.62422799       2.33786473      -2.84778783      -5.39077977      -7.96381948       0.91238474
 C              7.94399809       3.51703989       4.79573249      -2.93352080       4.70513337       4.17408345      -7.96757757       0.91353868
 C              5.21852374       6.94733937       5.36344326      -2.43461595      -2.01552440      -0.93700001      -6.61558742       0.91660075
 C              6.65334727       8.00104786       4.01803777       1.24548892      -1.58884896      -3.67633252      -7.93577074       0.92282264
 C              2.11505823       4.30851436       2.13534077      -6.54445710       4.15781289       2.15356278      -7.64882021       0.92277129
 C              0.22900054       2.87700598       8.24908321       0.76643846      -3.54877998       2.49023869      -7.59547667       0.92137732
 C              9.06153238       8.06204121       4.97881270      -4.52796433      -3.27878377       1.19198156      -7.97414170       0.91012033
 C              1.69379706       5.65246263       4.36359689      -2.14170584       1.63483333       0.53139954      -7.23805785       0.91232518
 C              8.34960337       4.78894736       4.01775544      -0.56095305      -4.58594149      -2.37613855      -7.88789375       0.90846008
 C              9.07461995       6.02763954       1.54838572      -2.64252708       0.70800060      -2.86094760      -7.80060806       0.91625455
 C              5.48737897       2.02758921       0.81266776       2.90646264       0.36189258      -0.30090347      -7.25983343       0.90984105
 C              5.47575772       4.38452607       4.81812799       0.46125117      -0.21902337      -1.18867546      -8.87392552       0.91739957
 C              7.98399851       1.25607852       0.49578835      -3.14473716       3.54933435      -5.93502002      -8.38557150       0.91178474
 C              1.28534112       6.33036580       3.15444053       1.18605047      -3.72091750       1.77429300      -7.12696771       0.91089312
 C              3.76680568       6.90565406       1.96595833      -1.11053639      -4.00019900      -1.66281791      -7.55314923       0.91595627
 C              6.01254831       3.39779459       7.04350612       2.60160509      -1.53154586      -3.21528684      -8.68885925       0.90227168
 C              4.90995953       2.91576776       4.61083077       2.69181273       4.04387617      -3.58646518      -8.74563961       0.90776685
 C              4.69083159       8.17017529       5.44941865      -5.25483014       5.99849220       1.39987798      -7.60828585       0.91846891
 C              5.01027022       5.59038549       2.96976649      -1.18386935      -1.32049074      -3.60163126      -6.03675794       0.92364771
 C              3.28068955       6.88050808       0.37709860       2.17722654       1.36926859       1.34519056      -6.76603874       0.91562991
 C              2.29620764       2.19486780       1.29786402      -1.29339914      -1.15414298      -1.52585264      -8.73376857       0.91096723
 C              7.86404281       8.19661454       7.50795535       4.37141599       3.67440787       0.75019120      -7.90567261       0.91320667
 C              7.28883651       0.24392783       8.44931296       4.36531816       0.37110460      -2.18496655      -8.19100047       0.90928889
 C              3.00047719       5.42967345       4.57430944       1.11949479      -1.98719061      -3.07318923      -6.98307848       0.91017342
 C              6.93939758       1.91383576       1.38696329      -1.99844772      -4.65540433       0.05013169      -8.41646906       0.92330366
 C              1.09663243       8.80526380       6.89768494       6.95316602      -3.73709279       1.44314953      -9.00814958       0.90622559
 C              3.90606030       4.57209631       8.50600753       2.23941357       1.27593645      -0.18006335      -8.54040455       0.90958477
