       2
 Properties=species:S:1:pos:R:3:forces:R:3:local_energy:R:1:hirshfeld_v:R:1 Lattice="200.0000000000      0.0000000000    0.0000000000    0.0000000000  200.0000000000    0.0000000000    0.0000000000    0.0000000000  200.0000000000" energy=-0.214589 virial="-0.01120386           0.00000000      0.00000000      0.00000000      0.00000000      0.00000000      0.00000000      0.00000000      0.00000000" stress="0.00000000           -0.00000000     -0.00000000     -0.00000000     -0.00000000     -0.00000000     -0.00000000     -0.00000000     -0.00000000" volume=8000000.000000
 C              0.00000000       0.00000000       0.00000000       0.00224077       0.00000000       0.00000000      -0.10729452       1.02733555
 C              5.00000000       0.00000000       0.00000000      -0.00224077       0.00000000       0.00000000      -0.10729452       1.02733555
