       2
 Properties=species:S:1:pos:R:3:forces:R:3:local_energy:R:1:hirshfeld_v:R:1 Lattice="20.0000000000       0.0000000000    0.0000000000    0.0000000000   20.0000000000    0.0000000000    0.0000000000    0.0000000000   20.0000000000" energy=-1.511487 virial="-5.59580898           0.00000000      0.00000000      0.00000000      0.00000000      0.00000000      0.00000000      0.00000000      0.00000000" stress="0.00069948           -0.00000000     -0.00000000     -0.00000000     -0.00000000     -0.00000000     -0.00000000     -0.00000000     -0.00000000" volume=8000.000000
 C              0.00000000       0.00000000       0.00000000       1.86374493      -0.00000000       0.00000000      -0.75574372       1.02967205
 C              3.00000000       0.00000000       0.00000000      -1.86374493       0.00000000       0.00000000      -0.75574372       1.02967205
