      60
 Properties=species:S:1:pos:R:3:forces:R:3:local_energy:R:1:hirshfeld_v:R:1 Lattice="200.0000000000      0.0000000000    0.0000000000    0.0000000000  200.0000000000    0.0000000000    0.0000000000    0.0000000000  200.0000000000" energy=-535.883809 virial="-0.36262334          -0.17973803      0.04366863     -0.17973803     -0.67354439      0.01270622      0.04366863      0.01270622     -0.43647927" stress="0.00000005            0.00000002     -0.00000001      0.00000002      0.00000008     -0.00000000     -0.00000001     -0.00000000      0.00000005" volume=8000000.000000
 C              7.28766000       6.32384000      11.08071000       0.01106109       0.06924951       0.01006274      -8.93236098       0.85398012
 C              8.17010000       7.19820000      11.83431000      -0.06215279       0.00740291      -0.06628875      -8.93113336       0.85395875
 C              7.82312000       5.40379000      10.17174000       0.06624909       0.00735105      -0.05320924      -8.92992639       0.85401314
 C              9.55575000       7.11947000      11.65181000       0.03075770       0.02011309      -0.08381410      -8.92981620       0.85399506
 C             10.34747000       8.33446000      11.57854000       0.02521663      -0.03561653      -0.05808709      -8.93394712       0.85408954
 C              7.52513000       8.49407000      11.94969000      -0.01757101      -0.04894641      -0.05310377      -8.93342176       0.85396964
 C              8.28815000       9.66528000      11.88021000       0.04315070       0.02953975      -0.06545939      -8.93184103       0.85397520
 C              9.72519000       9.58294000      11.69074000      -0.04046624       0.07639971      -0.05262600      -8.92968140       0.85408450
 C              6.04281000       5.93248000       8.54449000      -0.01142197       0.08887480      -0.01593305      -8.93288895       0.85394107
 C              5.48781000       6.88671000       9.48799000       0.00303361       0.02439494      -0.08145061      -8.93350364       0.85397162
 C              7.19130000       5.20716000       8.87936000       0.06829714      -0.03423167       0.04457797      -8.93866567       0.85407920
 C              6.09683000       7.07853000      10.73395000       0.08380960       0.05718061      -0.03980233      -8.92689105       0.85384843
 C              6.24545000       8.42128000      11.26831000       0.03004826      -0.04856385       0.00547984      -8.93528912       0.85404744
 C              5.00000000       8.02796000       8.73412000       0.04555388      -0.05274286      -0.04086996      -8.93352100       0.85401308
 C              5.14341000       9.32046000       9.25092000       0.03518674       0.07898740       0.05286245      -8.93606583       0.85408342
 C              5.77472000       9.52231000      10.54328000       0.03669206       0.00998446      -0.07224158      -8.92914984       0.85401938
 C              8.09699000       5.52910000       6.60450000      -0.01291455       0.09963991       0.05079815      -8.92804494       0.85381601
 C              6.90696000       6.28678000       6.25862000       0.04342974       0.04281646      -0.02861059      -8.93289855       0.85407565
 C              8.23661000       5.00000000       7.89356000      -0.00509050       0.02834561       0.04507657      -8.93453327       0.85397476
 C              5.89729000       6.48231000       7.20819000       0.00109978       0.08224724       0.06510697      -8.92770087       0.85397937
 C              5.25014000       7.77861000       7.32528000       0.09246145      -0.01364576       0.04251276      -8.92522783       0.85397970
 C              7.30750000       7.38081000       5.39018000       0.04171876      -0.07592064       0.05248797      -8.92981852       0.85407898
 C              6.68539000       8.62933000       5.50232000      -0.02662053       0.03608734       0.05818553      -8.93407979       0.85409230
 C              5.63711000       8.83263000       6.48814000       0.08726753       0.01124252      -0.02025968      -8.92904533       0.85402605
 C             10.61144000       5.67417000       7.94558000      -0.01971628       0.06188435      -0.02749358      -8.92886711       0.85404640
 C             10.46803000       6.22407000       6.60851000      -0.02869405       0.08126831       0.07095361      -8.92364356       0.85392756
 C              9.51581000       5.07072000       8.57587000      -0.00848725       0.06429661       0.00559571      -8.93169409       0.85400528
 C              9.23212000       6.15584000       5.95340000      -0.00537441       0.02700027      -0.01178341      -8.93808063       0.85403410
 C              8.74452000       7.29848000       5.20075000      -0.04072801      -0.02710194       0.06468927      -8.93186347       0.85397518
 C             11.25804000       7.44140000       6.53754000      -0.03611354      -0.01037180       0.07327373      -8.92928087       0.85401177
 C             10.78743000       8.54244000       5.81255000      -0.03058218       0.04998673      -0.00579020      -8.93538759       0.85404610
 C              9.50772000       8.46964000       5.13124000       0.01578428       0.04939895       0.05271663      -8.93316192       0.85397400
 C             10.11096000       6.16490000      10.70855000       0.01322620       0.04436603       0.01990364      -8.93380531       0.85416549
 C             11.24922000       6.78972000      10.05652000      -0.09747260       0.03778340      -0.01394280      -8.92862672       0.85395653
 C              9.26140000       5.31910000       9.98455000      -0.02896389       0.09497436      -0.05623024      -8.92421213       0.85396393
 C             11.49086000       6.55105000       8.69835000      -0.02963366      -0.00217534      -0.02741163      -8.93755502       0.85409401
 C             11.88928000       7.64325000       7.82994000      -0.03436915      -0.07722592      -0.05331982      -8.93606092       0.85407944
 C             11.39574000       8.13108000      10.59273000      -0.08745745      -0.01072028       0.02088195      -8.92930152       0.85402301
 C             11.78269000       9.18516000       9.75574000      -0.09235882       0.01445428      -0.04424972      -8.92533018       0.85397913
 C             12.03279000       8.93571000       8.34690000      -0.04588795       0.05361151       0.03892112      -8.93331385       0.85401390
 C              9.74533000      10.63990000       6.00027000      -0.01145484      -0.07086112      -0.01148169      -8.93233690       0.85398045
 C             10.93620000       9.88519000       6.34702000      -0.08792185      -0.05698878       0.03754195      -8.92662978       0.85384544
 C             11.54502000      10.07699000       7.59304000      -0.00217225      -0.02404846       0.08336023      -8.93351850       0.85397820
 C              9.20974000      11.55982000       6.90925000      -0.06738245      -0.00585662       0.05341055      -8.93004462       0.85401128
 C              6.92189000      10.79886000       6.37217000      -0.01292674      -0.04405189      -0.01918424      -8.93394635       0.85416025
 C              7.47719000       9.84434000       5.42897000      -0.03271661      -0.02181578       0.08435986      -8.92962166       0.85399212
 C              8.86285000       9.76560000       5.24659000       0.06274375      -0.00919333       0.06614571      -8.93104609       0.85396489
 C              7.77145000      11.64456000       7.09627000       0.02761941      -0.09478046       0.05630515      -8.92434935       0.85396044
 C              6.42112000      11.28960000       9.13514000       0.01944123      -0.06357434       0.02894535      -8.92881158       0.85404620
 C              5.54173000      10.41268000       8.38235000       0.03158825       0.00197235       0.02765896      -8.93713707       0.85409674
 C              5.78360000      10.17405000       7.02416000       0.09485066      -0.03871021       0.01859310      -8.92871652       0.85396315
 C              7.51683000      11.89289000       8.50490000       0.01018899      -0.06244313      -0.00538281      -8.93185711       0.85400301
 C              8.93558000      11.43467000      10.47645000       0.01309893      -0.10066181      -0.04993328      -8.92814581       0.85381398
 C              7.80046000      10.80795000      11.12755000       0.00401442      -0.02761628       0.01001371      -8.93782611       0.85403666
 C              6.56458000      10.73974000      10.47227000       0.03038332      -0.08305880      -0.06858527      -8.92355734       0.85393602
 C              8.79593000      11.96360000       9.18735000       0.00699694      -0.02715328      -0.04582615      -8.93474126       0.85397361
 C             10.98991000      11.03123000       8.53658000       0.01191995      -0.08972140       0.01573259      -8.93278524       0.85394506
 C             11.13547000      10.48148000       9.87290000      -0.00250014      -0.08246810      -0.06626438      -8.92738638       0.85398101
 C             10.12566000      10.67705000      10.82237000      -0.04108935      -0.04491059       0.02814510      -8.93289468       0.85408165
 C              9.84135000      11.75643000       8.20170000      -0.06665213       0.03432457      -0.04566118      -8.93881979       0.85408118
