      60
 Properties=species:S:1:pos:R:3:forces:R:3:local_energy:R:1:hirshfeld_v:R:1 Lattice="200.0000000000      0.0000000000    0.0000000000    0.0000000000  200.0000000000    0.0000000000    0.0000000000    0.0000000000  200.0000000000" energy=-536.196368 virial="-0.36262334          -0.17973803      0.04366863     -0.17973803     -0.67354439      0.01270622      0.04366863      0.01270622     -0.43647927" stress="0.00000005            0.00000002     -0.00000001      0.00000002      0.00000008     -0.00000000     -0.00000001     -0.00000000      0.00000005" volume=8000000.000000
 C              7.28766000       6.32384000      11.08071000       0.00802356       0.07110246       0.01564978      -8.93756874       0.85398012
 C              8.17010000       7.19820000      11.83431000      -0.06784567       0.00668472      -0.06292563      -8.93634178       0.85395875
 C              7.82312000       5.40379000      10.17174000       0.06775592       0.00131560      -0.05542398      -8.93513602       0.85401314
 C              9.55575000       7.11947000      11.65181000       0.03699882       0.01868031      -0.08201181      -8.93502666       0.85399506
 C             10.34747000       8.33446000      11.57854000       0.02914154      -0.04061251      -0.05613317      -8.93915957       0.85408954
 C              7.52513000       8.49407000      11.94969000      -0.02134860      -0.05352799      -0.05008874      -8.93863323       0.85396964
 C              8.28815000       9.66528000      11.88021000       0.04586035       0.03513599      -0.06306361      -8.93705296       0.85397520
 C              9.72519000       9.58294000      11.69074000      -0.04186210       0.08213401      -0.04970510      -8.93489376       0.85408450
 C              6.04281000       5.93248000       8.54449000      -0.01792976       0.08971894      -0.01721988      -8.93809995       0.85394107
 C              5.48781000       6.88671000       9.48799000      -0.00173883       0.02233344      -0.08549186      -8.93871200       0.85397162
 C              7.19130000       5.20716000       8.87936000       0.07174942      -0.03969220       0.04610943      -8.94387880       0.85407920
 C              6.09683000       7.07853000      10.73395000       0.08418886       0.05684358      -0.03312523      -8.93209819       0.85384843
 C              6.24545000       8.42128000      11.26831000       0.03003424      -0.05292500       0.01042921      -8.94049992       0.85404744
 C              5.00000000       8.02796000       8.73412000       0.04219211      -0.05815437      -0.04265456      -8.93873163       0.85401308
 C              5.14341000       9.32046000       9.25092000       0.03305669       0.08463850       0.05542673      -8.94128009       0.85408342
 C              5.77472000       9.52231000      10.54328000       0.03267389       0.01513726      -0.07344640      -8.93436101       0.85401938
 C              8.09699000       5.52910000       6.60450000      -0.01383632       0.09932024       0.04420038      -8.93325252       0.85381601
 C              6.90696000       6.28678000       6.25862000       0.04613735       0.04027034      -0.03413850      -8.93810760       0.85407565
 C              8.23661000       5.00000000       7.89356000      -0.00475592       0.02350503       0.04954873      -8.93974213       0.85397476
 C              5.89729000       6.48231000       7.20819000      -0.00493276       0.08143548       0.06770998      -8.93290816       0.85397937
 C              5.25014000       7.77861000       7.32528000       0.08833771      -0.01836891       0.04471580      -8.93043285       0.85397970
 C              7.30750000       7.38081000       5.39018000       0.04311409      -0.08166317       0.04956866      -8.93503092       0.85407898
 C              6.68539000       8.62933000       5.50232000      -0.03054170       0.04109243       0.05622920      -8.93929218       0.85409230
 C              5.63711000       8.83263000       6.48814000       0.08643473       0.01558350      -0.02515043      -8.93425124       0.85402605
 C             10.61144000       5.67417000       7.94558000      -0.01376184       0.06198491      -0.03034809      -8.93407408       0.85404640
 C             10.46803000       6.22407000       6.60851000      -0.02229308       0.07972536       0.07191933      -8.92884865       0.85392756
 C              9.51581000       5.07072000       8.57587000      -0.01197570       0.05921337       0.00812458      -8.93690082       0.85400528
 C              9.23212000       6.15584000       5.95340000      -0.00962102       0.02492458      -0.01644713      -8.94328847       0.85403410
 C              8.74452000       7.29848000       5.20075000      -0.04344153      -0.03269218       0.06229184      -8.93707549       0.85397518
 C             11.25804000       7.44140000       6.53754000      -0.03209276      -0.01553255       0.07448274      -8.93449190       0.85401177
 C             10.78743000       8.54244000       5.81255000      -0.03056880       0.05435706      -0.01074149      -8.94059829       0.85404610
 C              9.50772000       8.46964000       5.13124000       0.01956071       0.05397180       0.04970297      -8.93837341       0.85397400
 C             10.11096000       6.16490000      10.70855000       0.01781151       0.04579533       0.02437723      -8.93901423       0.85416549
 C             11.24922000       6.78972000      10.05652000      -0.09626130       0.03736335      -0.00734192      -8.93383552       0.85395653
 C              9.26140000       5.31910000       9.98455000      -0.03168550       0.08913233      -0.05788493      -8.92941983       0.85396393
 C             11.49086000       6.55105000       8.69835000      -0.02632583      -0.00467233      -0.03266898      -8.94276777       0.85409401
 C             11.88928000       7.64325000       7.82994000      -0.03223869      -0.08287205      -0.05588800      -8.94127519       0.85407944
 C             11.39574000       8.13108000      10.59273000      -0.08662723      -0.01507337       0.02577637      -8.93450736       0.85402301
 C             11.78269000       9.18516000       9.75574000      -0.08823605       0.01918783      -0.04645391      -8.93053510       0.85397913
 C             12.03279000       8.93571000       8.34690000      -0.04252578       0.05901536       0.04070990      -8.93852448       0.85401390
 C              9.74533000      10.63990000       6.00027000      -0.00841341      -0.07271520      -0.01706768      -8.93754464       0.85398045
 C             10.93620000       9.88519000       6.34702000      -0.08829916      -0.05665692       0.03086381      -8.93183683       0.85384544
 C             11.54502000      10.07699000       7.59304000       0.00259808      -0.02198136       0.08740510      -8.93872683       0.85397820
 C              9.20974000      11.55982000       6.90925000      -0.06889039       0.00017960       0.05562626      -8.93525434       0.85401128
 C              6.92189000      10.79886000       6.37217000      -0.01751607      -0.04548181      -0.02365641      -8.93915519       0.85416025
 C              7.47719000       9.84434000       5.42897000      -0.03895691      -0.02038671       0.08255561      -8.93483201       0.85399212
 C              8.86285000       9.76560000       5.24659000       0.06843771      -0.00847153       0.06278392      -8.93625444       0.85396489
 C              7.77145000      11.64456000       7.09627000       0.03034674      -0.08893621       0.05796111      -8.92955708       0.85396044
 C              6.42112000      11.28960000       9.13514000       0.01348609      -0.06367424       0.03180145      -8.93401838       0.85404620
 C              5.54173000      10.41268000       8.38235000       0.02827561       0.00446005       0.03291332      -8.94234963       0.85409674
 C              5.78360000      10.17405000       7.02416000       0.09364598      -0.03828254       0.01198879      -8.93392526       0.85396315
 C              7.51683000      11.89289000       8.50490000       0.01367946      -0.05735974      -0.00791440      -8.93706391       0.85400301
 C              8.93558000      11.43467000      10.47645000       0.01402441      -0.10034206      -0.04333652      -8.93335338       0.85381398
 C              7.80046000      10.80795000      11.12755000       0.00825963      -0.02554547       0.01468108      -8.94303386       0.85403666
 C              6.56458000      10.73974000      10.47227000       0.02398555      -0.08151012      -0.06955566      -8.92876235       0.85393602
 C              8.79593000      11.96360000       9.18735000       0.00665839      -0.02231279      -0.05030070      -8.93995030       0.85397361
 C             10.98991000      11.03123000       8.53658000       0.01842834      -0.09056679       0.01701417      -8.93799632       0.85394506
 C             11.13547000      10.48148000       9.87290000       0.00353473      -0.08166317      -0.06886192      -8.93259360       0.85398101
 C             10.12566000      10.67705000      10.82237000      -0.04380098      -0.04235717       0.03366870      -8.93810366       0.85408165
 C              9.84135000      11.75643000       8.20170000      -0.07010835       0.03978665      -0.04719019      -8.94403314       0.85408118
