      60
 Properties=species:S:1:pos:R:3:forces:R:3:local_energy:R:1:hirshfeld_v:R:1 Lattice="200.0000000000      0.0000000000    0.0000000000    0.0000000000  200.0000000000    0.0000000000    0.0000000000    0.0000000000  200.0000000000" energy=-525.750106 virial="1.87604668           -0.29654412      0.02523265     -0.29654412      1.65077359      0.08621061      0.02523265      0.08621061      1.62106281" stress="-0.00000023           0.00000004     -0.00000000      0.00000004     -0.00000021     -0.00000001     -0.00000000     -0.00000001     -0.00000020" volume=8000000.000000
 C              7.28766000       6.32384000      11.08071000       0.29864554      -0.19477908      -0.47630651      -8.76327920       0.85398012
 C              8.17010000       7.19820000      11.83431000       0.64640873       0.22401710      -0.22228355      -8.76438043       0.85395875
 C              7.82312000       5.40379000      10.17174000      -0.39439466       0.92601678       0.38035097      -8.76207393       0.85401314
 C              9.55575000       7.11947000      11.65181000      -0.54061160       0.20369021      -0.11362438      -8.75925938       0.85399506
 C             10.34747000       8.33446000      11.57854000      -0.31498848       0.50998415      -0.13347626      -8.76332888       0.85408954
 C              7.52513000       8.49407000      11.94969000       0.43179321       0.53851396      -0.19938494      -8.75961507       0.85396964
 C              8.28815000       9.66528000      11.88021000      -0.25898280      -0.31010880      -0.09979760      -8.76157920       0.85397520
 C              9.72519000       9.58294000      11.69074000       0.30292495      -0.39080035      -0.20021020      -8.75948426       0.85408450
 C              6.04281000       5.93248000       8.54449000       0.54794872       0.16163366       0.21406090      -8.76074900       0.85394107
 C              5.48781000       6.88671000       9.48799000       0.26780034       0.09848132       0.35914031      -8.76389533       0.85397162
 C              7.19130000       5.20716000       8.87936000      -0.36558446       0.41407136      -0.11982137      -8.76026533       0.85407920
 C              6.09683000       7.07853000      10.73395000       0.13264018       0.38580011      -0.54382883      -8.76280250       0.85384843
 C              6.24545000       8.42128000      11.26831000       0.13289953       0.73858591      -0.32505597      -8.76381842       0.85404744
 C              5.00000000       8.02796000       8.73412000      -0.12155147       1.18113028       0.38869290      -8.76131556       0.85401308
 C              5.14341000       9.32046000       9.25092000       0.12126163      -0.50464953      -0.18534541      -8.75945751       0.85408342
 C              5.77472000       9.52231000      10.54328000       0.34901280      -0.49750225       0.15700373      -8.76317147       0.85401938
 C              8.09699000       5.52910000       6.60450000       0.05712794      -0.00243288       0.67111203      -8.76069057       0.85381601
 C              6.90696000       6.28678000       6.25862000      -0.31651036       0.22725561       0.47343546      -8.76572052       0.85407565
 C              8.23661000       5.00000000       7.89356000      -0.05380042       0.40823809      -0.46636647      -8.76205398       0.85397476
 C              5.89729000       6.48231000       7.20819000       0.54452214       0.08167050      -0.27428469      -8.76372911       0.85397937
 C              5.25014000       7.77861000       7.32528000       0.23929808       0.42200303      -0.26965493      -8.76537757       0.85397970
 C              7.30750000       7.38081000       5.39018000      -0.16891711       0.48818910       0.23195424      -8.75944030       0.85407898
 C              6.68539000       8.62933000       5.50232000       0.31375108      -0.50975394       0.13309404      -8.76339954       0.85409230
 C              5.63711000       8.83263000       6.48814000       0.30623145      -0.38046465       0.44832200      -8.76341096       0.85402605
 C             10.61144000       5.67417000       7.94558000      -0.68151852       0.05719278       0.31215145      -8.76374793       0.85404640
 C             10.46803000       6.22407000       6.60851000      -0.63009852       0.15340058      -0.12521270      -8.76345014       0.85392756
 C              9.51581000       5.07072000       8.57587000       0.42808105       0.46992320      -0.25884191      -8.76365485       0.85400528
 C              9.23212000       6.15584000       5.95340000       0.49316136       0.17116832       0.38035454      -8.76425817       0.85403410
 C              8.74452000       7.29848000       5.20075000       0.27547922       0.51509147       0.16649431      -8.76160002       0.85397518
 C             11.25804000       7.44140000       6.53754000      -0.22045567       0.46845742      -0.16563532      -8.76324080       0.85401177
 C             10.78743000       8.54244000       5.81255000       0.06850425      -0.42240891       0.42944026      -8.76378539       0.85404610
 C              9.50772000       8.46964000       5.13124000      -0.31391046      -0.66338811       0.15780392      -8.75968274       0.85397400
 C             10.11096000       6.16490000      10.70855000      -0.65292845      -0.07321538      -0.35620739      -8.76516558       0.85416549
 C             11.24922000       6.78972000      10.05652000      -0.01229020       0.13234608      -0.60551825      -8.76079583       0.85395653
 C              9.26140000       5.31910000       9.98455000       0.10586087       0.94099977       0.30321484      -8.76426160       0.85396393
 C             11.49086000       6.55105000       8.69835000      -0.25749285       0.17965814       0.53776244      -8.76001387       0.85409401
 C             11.88928000       7.64325000       7.82994000      -0.11352412       0.57614309       0.20833938      -8.75948399       0.85407944
 C             11.39574000       8.13108000      10.59273000      -0.07173859       0.45034865      -0.42434395      -8.76349306       0.85402301
 C             11.78269000       9.18516000       9.75574000      -0.40313585      -0.46066660       0.25481528      -8.76539847       0.85397913
 C             12.03279000       8.93571000       8.34690000      -0.26414614      -0.60098246      -0.19706809      -8.76132095       0.85401390
 C              9.74533000      10.63990000       6.00027000      -0.30083485       0.22888698       0.48684352      -8.76332031       0.85398045
 C             10.93620000       9.88519000       6.34702000       0.01834803      -0.12149284       0.62919460      -8.76284622       0.85384544
 C             11.54502000      10.07699000       7.59304000      -0.40149587      -0.17682730      -0.38329989      -8.76391590       0.85397820
 C              9.20974000      11.55982000       6.90925000       0.13094621      -0.52435969      -0.24666758      -8.76197381       0.85401128
 C              6.92189000      10.79886000       6.37217000       0.66585847       0.36564745       0.45475056      -8.76511992       0.85416025
 C              7.47719000       9.84434000       5.42897000       0.58981090      -0.12285219       0.14216557      -8.75924755       0.85399212
 C              8.86285000       9.76560000       5.24659000      -0.32709384      -1.22574269      -0.11083154      -8.76440131       0.85396489
 C              7.77145000      11.64456000       7.09627000      -0.20270071      -0.57822574      -0.18292531      -8.76431578       0.85396044
 C              6.42112000      11.28960000       9.13514000       0.67552918      -0.00921210      -0.29407498      -8.76368385       0.85404620
 C              5.54173000      10.41268000       8.38235000       0.42707277      -0.24278489      -0.55742621      -8.76014203       0.85409674
 C              5.78360000      10.17405000       7.02416000      -0.04520610      -0.21764622       0.58234241      -8.76089965       0.85396315
 C              7.51683000      11.89289000       8.50490000      -0.42453375      -0.47030474       0.25787377      -8.76357345       0.85400301
 C              8.93558000      11.43467000      10.47645000      -0.07352308      -0.03990475      -0.68434510      -8.76061785       0.85381398
 C              7.80046000      10.80795000      11.12755000      -0.43528706      -0.19570920      -0.38986856      -8.76433568       0.85403666
 C              6.56458000      10.73974000      10.47227000       0.58494375      -0.06482244       0.15694408      -8.76357170       0.85393602
 C              8.79593000      11.96360000       9.18735000       0.05551588      -0.40665269       0.46576927      -8.76202380       0.85397361
 C             10.98991000      11.03123000       8.53658000      -0.57326434       0.12906233      -0.11802698      -8.76075443       0.85394506
 C             11.13547000      10.48148000       9.87290000      -0.48558254      -0.04452115       0.28521773      -8.76371371       0.85398101
 C             10.12566000      10.67705000      10.82237000       0.21428064       0.13151402      -0.35426319      -8.76580303       0.85408165
 C              9.84135000      11.75643000       8.20170000       0.40252470      -0.45794234       0.10421846      -8.76019482       0.85408118
