      60
 Properties=species:S:1:pos:R:3:forces:R:3:local_energy:R:1:hirshfeld_v:R:1 Lattice="200.0000000000      0.0000000000    0.0000000000    0.0000000000  200.0000000000    0.0000000000    0.0000000000    0.0000000000  200.0000000000" energy=-536.181687 virial="1.87604670           -0.29654412      0.02523267     -0.29654412      1.65077361      0.08621061      0.02523267      0.08621061      1.62106281" stress="-0.00000023           0.00000004     -0.00000000      0.00000004     -0.00000021     -0.00000001     -0.00000000     -0.00000001     -0.00000020" volume=8000000.000000
 C              7.28766000       6.32384000      11.08071000       0.11797380      -0.22874916      -0.14448189      -8.93713011       0.85398012
 C              8.17010000       7.19820000      11.83431000       0.27193736      -0.05450077      -0.01402880      -8.93823924       0.85395875
 C              7.82312000       5.40379000      10.17174000      -0.09224956       0.14615845       0.21327015      -8.93593540       0.85401314
 C              9.55575000       7.11947000      11.65181000      -0.27309870      -0.00143230       0.05461401      -8.93311760       0.85399506
 C             10.34747000       8.33446000      11.57854000      -0.07472659       0.28306045       0.06695391      -8.93718527       0.85408954
 C              7.52513000       8.49407000      11.94969000       0.14078121       0.24358694       0.03395898      -8.93347868       0.85396964
 C              8.28815000       9.66528000      11.88021000      -0.15979266      -0.22167656       0.05772733      -8.93544370       0.85397520
 C              9.72519000       9.58294000      11.69074000       0.15364144      -0.19650584       0.00616014      -8.93334735       0.85408450
 C              6.04281000       5.93248000       8.54449000       0.19403994      -0.18480227       0.06194019      -8.93461171       0.85394107
 C              5.48781000       6.88671000       9.48799000       0.07768534       0.02979724       0.24303173      -8.93776388       0.85397162
 C              7.19130000       5.20716000       8.87936000      -0.26388425       0.05534819      -0.03668109      -8.93414357       0.85407920
 C              6.09683000       7.07853000      10.73395000      -0.14637662      -0.03371507      -0.27238546      -8.93664940       0.85384843
 C              6.24545000       8.42128000      11.26831000      -0.15169514       0.23246810      -0.10488742      -8.93767794       0.85404744
 C              5.00000000       8.02796000       8.73412000      -0.03351676       0.27028057       0.10323716      -8.93517136       0.85401308
 C              5.14341000       9.32046000       9.25092000      -0.09184211      -0.22530096      -0.05264711      -8.93333754       0.85408342
 C              5.77472000       9.52231000      10.54328000       0.06977425      -0.22823659       0.17619363      -8.93703014       0.85401938
 C              8.09699000       5.52910000       6.60450000       0.00277943      -0.13078418       0.29944111      -8.93454111       0.85381601
 C              6.90696000       6.28678000       6.25862000      -0.25936092       0.03338027       0.14564032      -8.93958355       0.85407565
 C              8.23661000       5.00000000       7.89356000      -0.04672779       0.06304379      -0.28765230      -8.93592524       0.85397476
 C              5.89729000       6.48231000       7.20819000       0.17400347      -0.02822870      -0.20483110      -8.93758171       0.85397937
 C              5.25014000       7.77861000       7.32528000       0.09024082       0.22324613      -0.19798598      -8.93922330       0.85397970
 C              7.30750000       7.38081000       5.39018000      -0.15268095       0.19646106      -0.00678901      -8.93330350       0.85407898
 C              6.68539000       8.62933000       5.50232000       0.07357532      -0.28242851      -0.06742636      -8.93725594       0.85409230
 C              5.63711000       8.83263000       6.48814000      -0.07448414      -0.24014685       0.12898546      -8.93726712       0.85402605
 C             10.61144000       5.67417000       7.94558000      -0.22969863      -0.16828001       0.12147524      -8.93760853       0.85404640
 C             10.46803000       6.22407000       6.60851000      -0.26875273      -0.01068365      -0.15329273      -8.93729821       0.85392756
 C              9.51581000       5.07072000       8.57587000       0.30636863       0.11171232      -0.14221837      -8.93751106       0.85400528
 C              9.23212000       6.15584000       5.95340000       0.33254925      -0.01130726       0.08296628      -8.93811987       0.85403410
 C              8.74452000       7.29848000       5.20075000       0.16210746       0.22450376      -0.05836051      -8.93546464       0.85397518
 C             11.25804000       7.44140000       6.53754000      -0.06863721       0.22758510      -0.17543364      -8.93709962       0.85401177
 C             10.78743000       8.54244000       5.81255000       0.15125840      -0.23070288       0.10423683      -8.93764480       0.85404610
 C              9.50772000       8.46964000       5.13124000      -0.14289955      -0.24326364      -0.03378342      -8.93354645       0.85397400
 C             10.11096000       6.16490000      10.70855000      -0.15478884      -0.22447186      -0.11810204      -8.93902842       0.85416549
 C             11.24922000       6.78972000      10.05652000       0.05853713      -0.09221499      -0.29865697      -8.93464770       0.85395653
 C              9.26140000       5.31910000       9.98455000       0.20502252       0.19566463       0.16947521      -8.93810769       0.85396393
 C             11.49086000       6.55105000       8.69835000      -0.00258799      -0.00427403       0.31656622      -8.93389114       0.85409401
 C             11.88928000       7.64325000       7.82994000       0.09242683       0.22733345       0.05225366      -8.93336404       0.85407944
 C             11.39574000       8.13108000      10.59273000       0.07491195       0.24034831      -0.12809631      -8.93734934       0.85402301
 C             11.78269000       9.18516000       9.75574000      -0.08986673      -0.22183958       0.19653587      -8.93924417       0.85397913
 C             12.03279000       8.93571000       8.34690000       0.03270060      -0.26960034      -0.10465440      -8.93517662       0.85401390
 C              9.74533000      10.63990000       6.00027000      -0.11827150       0.22732424       0.14311641      -8.93717109       0.85398045
 C             10.93620000       9.88519000       6.34702000       0.14202364       0.03295013       0.26967898      -8.93669294       0.85384544
 C             11.54502000      10.07699000       7.59304000      -0.07718354      -0.02909549      -0.24071115      -8.93778458       0.85397820
 C              9.20974000      11.55982000       6.90925000       0.09156947      -0.14475695      -0.21280364      -8.93583554       0.85401128
 C              6.92189000      10.79886000       6.37217000       0.15447311       0.22501447       0.11895184      -8.93898267       0.85416025
 C              7.47719000       9.84434000       5.42897000       0.27088637      -0.00097854      -0.05381155      -8.93310570       0.85399212
 C              8.86285000       9.76560000       5.24659000      -0.27111783       0.05318526       0.01417363      -8.93825995       0.85396489
 C              7.77145000      11.64456000       7.09627000      -0.20605730      -0.19520001      -0.17000728      -8.93816197       0.85396044
 C              6.42112000      11.28960000       9.13514000       0.22922678       0.16687293      -0.12005994      -8.93754410       0.85404620
 C              5.54173000      10.41268000       8.38235000       0.00451880       0.00322247      -0.31564213      -8.93401897       0.85409674
 C              5.78360000      10.17405000       7.02416000      -0.06092468       0.09197248       0.30334117      -8.93475124       0.85396315
 C              7.51683000      11.89289000       8.50490000      -0.30513983      -0.11013419       0.14186680      -8.93742994       0.85400301
 C              8.93558000      11.43467000      10.47645000      -0.00246436       0.12991169      -0.29846392      -8.93446825       0.85381398
 C              7.80046000      10.80795000      11.12755000      -0.33351423       0.01002216      -0.08446955      -8.93819687       0.85403666
 C              6.56458000      10.73974000      10.47227000       0.27064137       0.00937666       0.15493641      -8.93741957       0.85393602
 C              8.79593000      11.96360000       9.18735000       0.04810321      -0.06172155       0.28723441      -8.93589541       0.85397361
 C             10.98991000      11.03123000       8.53658000      -0.19350423       0.18412478      -0.06284813      -8.93461701       0.85394506
 C             11.13547000      10.48148000       9.87290000      -0.17520190       0.02721070       0.20344766      -8.93756593       0.85398101
 C             10.12566000      10.67705000      10.82237000       0.26152317      -0.03504904      -0.14644729      -8.93966586       0.85408165
 C              9.84135000      11.75643000       8.20170000       0.26576624      -0.05508499       0.03624873      -8.93407313       0.85408118
