      60
 Properties=species:S:1:pos:R:3:forces:R:3:local_energy:R:1:hirshfeld_v:R:1 Lattice="18.0000000000       0.0000000000    0.0000000000    0.0000000000   18.0000000000    0.0000000000    0.0000000000    0.0000000000   18.0000000000" energy=-521.677327 virial="1.86847213           -0.30424655      0.03683946     -0.30424655      1.64656945      0.06881283      0.03683946      0.06881283      1.61273467" stress="-0.00032038           0.00005217     -0.00000632      0.00005217     -0.00028233     -0.00001180     -0.00000632     -0.00001180     -0.00027653" volume=5832.000000
 C              7.28666000       6.32384000      11.08071000       0.14987205      -0.26891617      -0.11714918      -8.69555786       0.85398724
 C              8.17010000       7.19820000      11.83431000       0.25766478      -0.07319896       0.01751310      -8.69738943       0.85398825
 C              7.82312000       5.40379000      10.17174000      -0.11179727       0.12281127       0.24027399      -8.69453055       0.85404149
 C              9.55575000       7.11947000      11.65181000      -0.26708239      -0.01793076       0.08882554      -8.69118216       0.85400943
 C             10.34747000       8.33446000      11.57854000      -0.05356851       0.28205604       0.10038766      -8.69551871       0.85408747
 C              7.52513000       8.49407000      11.94969000       0.13065509       0.24088604       0.07116085      -8.69069354       0.85397463
 C              8.28815000       9.66528000      11.88021000      -0.16182770      -0.20812005       0.09490177      -8.69366724       0.85397471
 C              9.72519000       9.58294000      11.69074000       0.16672144      -0.18428887       0.04103717      -8.69157910       0.85408323
 C              6.04281000       5.93248000       8.54449000       0.16562326      -0.21246782       0.06257087      -8.69280655       0.85393960
 C              5.48781000       6.88671000       9.48799000       0.04074037       0.01258438       0.24790389      -8.69638874       0.85395983
 C              7.19130000       5.20716000       8.87936000      -0.27755670       0.01858149      -0.03171040      -8.69200977       0.85408501
 C              6.09683000       7.07853000      10.73395000      -0.18626620      -0.04251929      -0.25069000      -8.69381784       0.85381845
 C              6.24545000       8.42128000      11.26831000      -0.17796184       0.23787433      -0.07342382      -8.69699773       0.85404402
 C              5.00000000       8.02796000       8.73412000      -0.07182153       0.26455550       0.10605824      -8.69331996       0.85401444
 C              5.14341000       9.32046000       9.25092000      -0.12940974      -0.21584059      -0.04483936      -8.69147202       0.85408446
 C              5.77472000       9.52231000      10.54328000       0.04009722      -0.21768591       0.19838395      -8.69521526       0.85401995
 C              8.09699000       5.52910000       6.60450000      -0.00185040      -0.16312632       0.27821716      -8.69287288       0.85381601
 C              6.90696000       6.28678000       6.25862000      -0.27707591       0.00915868       0.12043411      -8.69783424       0.85407565
 C              8.23661000       5.00000000       7.89356000      -0.04940133       0.02445974      -0.29487334      -8.69423237       0.85397408
 C              5.89729000       6.48231000       7.20819000       0.14508356      -0.05013439      -0.21950951      -8.69586056       0.85397960
 C              5.25014000       7.77861000       7.32528000       0.05441883       0.21554016      -0.21122938      -8.69756653       0.85397970
 C              7.30750000       7.38081000       5.39018000      -0.16597060       0.18422338      -0.04171839      -8.69150208       0.85407898
 C              6.68539000       8.62933000       5.50232000       0.05338635      -0.28078918      -0.10105472      -8.69548694       0.85409230
 C              5.63711000       8.83263000       6.48814000      -0.10613224      -0.23619418       0.10637743      -8.69556469       0.85402605
 C             10.61144000       5.67417000       7.94558000      -0.20671073      -0.19926047       0.11496523      -8.69589191       0.85404640
 C             10.46803000       6.22407000       6.60851000      -0.24726666      -0.03549776      -0.17448172      -8.69563421       0.85392756
 C              9.51581000       5.07072000       8.57587000       0.31774158       0.07425497      -0.14257272      -8.69587343       0.85400445
 C              9.23212000       6.15584000       5.95340000       0.34050811      -0.03697171       0.05432019      -8.69636885       0.85403410
 C              8.74452000       7.29848000       5.20075000       0.16457233       0.21151075      -0.09527726      -8.69370843       0.85397518
 C             11.25804000       7.44140000       6.53754000      -0.03838895       0.21608382      -0.19752598      -8.69535009       0.85401177
 C             10.78743000       8.54244000       5.81255000       0.17637103      -0.22998450       0.07404935      -8.69586481       0.85404610
 C              9.50772000       8.46964000       5.13124000      -0.13202416      -0.24339270      -0.07148258      -8.69178066       0.85397400
 C             10.11096000       6.16490000      10.70855000      -0.13656307      -0.24925281      -0.09430010      -8.69733667       0.85417089
 C             11.24922000       6.78972000      10.05652000       0.08853456      -0.11095491      -0.28198902      -8.69300155       0.85395564
 C              9.26140000       5.31910000       9.98455000       0.20937132       0.16185720       0.18748183      -8.69606533       0.85397430
 C             11.49086000       6.55105000       8.69835000       0.03027703      -0.02562126       0.31852020      -8.69209662       0.85409401
 C             11.88928000       7.64325000       7.82994000       0.12991568       0.21798056       0.04425611      -8.69152936       0.85407944
 C             11.39574000       8.13108000      10.59273000       0.10655407       0.23651633      -0.10546235      -8.69564820       0.85402301
 C             11.78269000       9.18516000       9.75574000      -0.05391586      -0.21416216       0.20984185      -8.69758933       0.85397913
 C             12.03279000       8.93571000       8.34690000       0.07163217      -0.26456457      -0.10671223      -8.69341627       0.85401390
 C              9.74533000      10.63990000       6.00027000      -0.10466404       0.25108135       0.11507413      -8.69543945       0.85398045
 C             10.93620000       9.88519000       6.34702000       0.16859427       0.04837764       0.24565045      -8.69502805       0.85384544
 C             11.54502000      10.07699000       7.59304000      -0.04376165      -0.01152542      -0.25113234      -8.69603933       0.85397820
 C              9.20974000      11.55982000       6.90925000       0.09918477      -0.11072689      -0.23077964      -8.69408029       0.85401128
 C              6.92189000      10.79886000       6.37217000       0.13680825       0.25055179       0.09490894      -8.69721874       0.85416025
 C              7.47719000       9.84434000       5.42897000       0.25944226       0.01397258      -0.08815404      -8.69137601       0.85399212
 C              8.86285000       9.76560000       5.24659000      -0.26731631       0.06730277      -0.02214048      -8.69654044       0.85396489
 C              7.77145000      11.64456000       7.09627000      -0.21423976      -0.16045475      -0.18585991      -8.69649252       0.85396044
 C              6.42112000      11.28960000       9.13514000       0.20613854       0.19782074      -0.11337881      -8.69583003       0.85404620
 C              5.54173000      10.41268000       8.38235000      -0.02843933       0.02452889      -0.31751090      -8.69222798       0.85409674
 C              5.78360000      10.17405000       7.02416000      -0.09106053       0.11056119       0.28678784      -8.69306294       0.85396315
 C              7.51683000      11.89289000       8.50490000      -0.31618270      -0.07257835       0.14147209      -8.69572839       0.85400301
 C              8.93558000      11.43467000      10.47645000       0.00221845       0.16240816      -0.27724047      -8.69280089       0.85381398
 C              7.80046000      10.80795000      11.12755000      -0.34153804       0.03557973      -0.05589961      -8.69644847       0.85403666
 C              6.56458000      10.73974000      10.47227000       0.24914454       0.03420247       0.17601831      -8.69575709       0.85393602
 C              8.79593000      11.96360000       9.18735000       0.05122572      -0.02326772       0.29438554      -8.69414419       0.85397361
 C             10.98991000      11.03123000       8.53658000      -0.16622317       0.21232830      -0.06287110      -8.69286765       0.85394506
 C             11.13547000      10.48148000       9.87290000      -0.14628768       0.04926185       0.21802635      -8.69586555       0.85398101
 C             10.12566000      10.67705000      10.82237000       0.27930565      -0.01074495      -0.12125290      -8.69791778       0.85408165
 C              9.84135000      11.75643000       8.20170000       0.28050173      -0.01873866       0.03241808      -8.69223920       0.85408118
