       3
 Properties=species:S:1:pos:R:3:forces:R:3:local_energy:R:1:hirshfeld_v:R:1 Lattice="20.0000000000       0.0000000000    0.0000000000    0.0000000000   20.0000000000    0.0000000000    0.0000000000    0.0000000000   20.0000000000" energy=11.818884 virial="109.04346689          0.00000000     -0.00000000      0.00000000      0.00000000      0.00000000     -0.00000000      0.00000000      0.00000000" stress="-0.01363043          -0.00000000      0.00000000     -0.00000000     -0.00000000     -0.00000000      0.00000000     -0.00000000     -0.00000000" volume=8000.000000
 C             19.99900000       0.00000000       0.00000000       1.54436752       0.00000000       0.00000000      -1.71067211       1.00755140
 C              2.70000000       0.00000000       0.00000000    -143.03040751      -0.00000000      -0.00000000       6.81923483       0.73592597
 C              3.50000000       0.00000000       0.00000000     141.48952771       0.00000000       0.00000000       6.71032098       0.70575812
