      60
 Properties=species:S:1:pos:R:3:forces:R:3:local_energy:R:1:hirshfeld_v:R:1 Lattice="200.0000000000      0.0000000000    0.0000000000    0.0000000000  200.0000000000    0.0000000000    0.0000000000    0.0000000000  200.0000000000" energy=-525.882938 virial="1.87604668           -0.29654412      0.02523265     -0.29654412      1.65077359      0.08621061      0.02523265      0.08621061      1.62106281" stress="-0.00000023           0.00000004     -0.00000000      0.00000004     -0.00000021     -0.00000001     -0.00000000     -0.00000001     -0.00000020" volume=8000000.000000
 C              7.28766000       6.32384000      11.08071000              NaN      -0.17432314      -0.48182334      -8.76548671       0.85398012
 C              8.17010000       7.19820000      11.83431000       0.45581715      -0.01891121      -0.38213507      -8.76659468       0.85395875
 C              7.82312000       5.40379000      10.17174000      -0.15960159       0.63883799       0.19926733      -8.76428447       0.85401314
 C              9.55575000       7.11947000      11.65181000      -0.85156445       0.23120327      -0.24734638      -8.76147663       0.85399506
 C             10.34747000       8.33446000      11.57854000      -0.46072772       0.61214296      -0.29287747      -8.76553815       0.85408954
 C              7.52513000       8.49407000      11.94969000       0.47453995       0.49674857      -0.37127472      -8.76183441       0.85396964
 C              8.28815000       9.66528000      11.88021000      -0.34624808      -0.61368880      -0.34406856      -8.76379715       0.85397520
 C              9.72519000       9.58294000      11.69074000       0.11896804      -0.49090098      -0.24729643      -8.76169625       0.85408450
 C              6.04281000       5.93248000       8.54449000       0.56917258      -0.01671738       0.19235993      -8.76296569       0.85394107
 C              5.48781000       6.88671000       9.48799000       0.41407860       0.23027463       0.36203999      -8.76611392       0.85397162
 C              7.19130000       5.20716000       8.87936000      -0.31567586       0.48051735      -0.21033357      -8.76248684       0.85407920
 C              6.09683000       7.07853000      10.73395000      -0.01842272       0.17470151      -0.87536082      -8.76501665       0.85384843
 C              6.24545000       8.42128000      11.26831000       0.01721780       0.50767793      -0.63055694      -8.76602993       0.85404744
 C              5.00000000       8.02796000       8.73412000       0.40533024       0.70105487       0.24006827      -8.76352700       0.85401308
 C              5.14341000       9.32046000       9.25092000       0.29166000      -0.60616364      -0.29112192      -8.76167734       0.85408342
 C              5.77472000       9.52231000      10.54328000       0.35896540      -0.58139299       0.05223983      -8.76538537       0.85401938
 C              8.09699000       5.52910000       6.60450000      -0.03939484       0.07926778       0.72452301      -8.76290315       0.85381601
 C              6.90696000       6.28678000       6.25862000      -0.31577877       0.38573129       0.62137656      -8.76793638       0.85407565
 C              8.23661000       5.00000000       7.89356000       0.05042471       0.47528312      -0.44490734      -8.76427029       0.85397476
 C              5.89729000       6.48231000       7.20819000       0.75346010       0.15048398      -0.32149394      -8.76594136       0.85397937
 C              5.25014000       7.77861000       7.32528000       0.55304018       0.60175647      -0.20853130      -8.76758447       0.85397970
 C              7.30750000       7.38081000       5.39018000      -0.17961836       0.67049670       0.41283048      -8.76165257       0.85407898
 C              6.68539000       8.62933000       5.50232000       0.47144957      -0.65043130       0.28681072      -8.76560915       0.85409230
 C              5.63711000       8.83263000       6.48814000       0.12247556      -0.44999947       0.39654942      -8.76562376       0.85402605
 C             10.61144000       5.67417000       7.94558000      -0.61722440       0.00232738       0.17721656      -8.76595919       0.85404640
 C             10.46803000       6.22407000       6.60851000      -0.80451007       0.25605549      -0.09710473      -8.76565766       0.85392756
 C              9.51581000       5.07072000       8.57587000       0.41367179       0.59960849      -0.21727433      -8.76586838       0.85400528
 C              9.23212000       6.15584000       5.95340000       0.61955848       0.36620501       0.60911261      -8.76646993       0.85403410
 C              8.74452000       7.29848000       5.20075000       0.34607929       0.67057278       0.35069176      -8.76381797       0.85397518
 C             11.25804000       7.44140000       6.53754000      -0.55285635       0.66140493      -0.10981829      -8.76545485       0.85401177
 C             10.78743000       8.54244000       5.81255000       0.00819505      -0.43710092       0.43201556      -8.76599714       0.85404610
 C              9.50772000       8.46964000       5.13124000      -0.30130966      -0.42751382       0.25367226      -8.76190179       0.85397400
 C             10.11096000       6.16490000      10.70855000      -0.47545618      -0.19437597      -0.58457996      -8.76737601       0.85416549
 C             11.24922000       6.78972000      10.05652000      -0.15929873       0.04574213      -0.82626008      -8.76301264       0.85395653
 C              9.26140000       5.31910000       9.98455000       0.25565165       0.64932553       0.15753357      -8.76647046       0.85396393
 C             11.49086000       6.55105000       8.69835000      -0.40155584       0.36540631       0.62467393      -8.76223763       0.85409401
 C             11.88928000       7.64325000       7.82994000      -0.27916198       0.70380422       0.25640222      -8.76170358       0.85407944
 C             11.39574000       8.13108000      10.59273000      -0.16981322       0.51985496      -0.62952138      -8.76570611       0.85402301
 C             11.78269000       9.18516000       9.75574000      -0.42032221      -0.47616339       0.19965299      -8.76760557       0.85397913
 C             12.03279000       8.93571000       8.34690000      -0.34635186      -0.61855980      -0.22636626      -8.76353207       0.85401390
 C              9.74533000      10.63990000       6.00027000      -0.40261113       0.17585786       0.68925472      -8.76552778       0.85398045
 C             10.93620000       9.88519000       6.34702000       0.01166167      -0.09116438       0.69316945      -8.76506010       0.85384544
 C             11.54502000      10.07699000       7.59304000      -0.62885895      -0.31513576      -0.46811612      -8.76613452       0.85397820
 C              9.20974000      11.55982000       6.90925000       0.17970842      -0.75497062      -0.23174787      -8.76418445       0.85401128
 C              6.92189000      10.79886000       6.37217000       0.51760878       0.13137523       0.37885160      -8.76733035       0.85416025
 C              7.47719000       9.84434000       5.42897000       0.71902106      -0.21269860       0.17380648      -8.76146452       0.85399212
 C              8.86285000       9.76560000       5.24659000      -0.68204810      -0.13972357       0.51124736      -8.76661548       0.85396489
 C              7.77145000      11.64456000       7.09627000      -0.33670664      -0.82340162      -0.21368327      -8.76652468       0.85396044
 C              6.42112000      11.28960000       9.13514000       0.73743053      -0.01532217      -0.40516825      -8.76589496       0.85404620
 C              5.54173000      10.41268000       8.38235000       0.40333061      -0.27725009      -0.67808165      -8.76236551       0.85409674
 C              5.78360000      10.17405000       7.02416000       0.23744661      -0.07760872       0.84451257      -8.76311638       0.85396315
 C              7.51683000      11.89289000       8.50490000      -0.36042473      -0.46958338       0.25918020      -8.76578699       0.85400301
 C              8.93558000      11.43467000      10.47645000      -0.16773758      -0.06596009      -0.68560424      -8.76283047       0.85381398
 C              7.80046000      10.80795000      11.12755000      -0.62394009      -0.31347430      -0.51603424      -8.76654720       0.85403666
 C              6.56458000      10.73974000      10.47227000       0.75613564      -0.24438642       0.13366308      -8.76577902       0.85393602
 C              8.79593000      11.96360000       9.18735000       0.04446187      -0.30604883       0.31954753      -8.76424020       0.85397361
 C             10.98991000      11.03123000       8.53658000      -0.65025565       0.07913411      -0.02449383      -8.76297103       0.85394506
 C             11.13547000      10.48148000       9.87290000      -0.76867213      -0.17917798       0.30808232      -8.76592574       0.85398101
 C             10.12566000      10.67705000      10.82237000       0.38748710      -0.33394903      -0.60566128      -8.76801874       0.85408165
 C              9.84135000      11.75643000       8.20170000       0.35067878      -0.59379725       0.10057440      -8.76241645       0.85408118
