      60
 Properties=species:S:1:pos:R:3:forces:R:3:local_energy:R:1:hirshfeld_v:R:1 Lattice="200.0000000000      0.0000000000    0.0000000000    0.0000000000  200.0000000000    0.0000000000    0.0000000000    0.0000000000  200.0000000000" energy=NaN virial="1.87604668           -0.29654412      0.02523265     -0.29654412      1.65077359      0.08621061      0.02523265      0.08621061      1.62106281" stress="-0.00000023           0.00000004     -0.00000000      0.00000004     -0.00000021     -0.00000001     -0.00000000     -0.00000001     -0.00000020" volume=8000000.000000
 C              7.28766000       6.32384000      11.08071000              NaN              NaN              NaN      -8.76584342       0.85398012
 C              8.17010000       7.19820000      11.83431000              NaN              NaN              NaN      -8.76694605       0.85395875
 C              7.82312000       5.40379000      10.17174000              NaN              NaN              NaN      -8.76463822       0.85401314
 C              9.55575000       7.11947000      11.65181000              NaN              NaN              NaN      -8.76182599       0.85399506
 C             10.34747000       8.33446000      11.57854000              NaN              NaN              NaN      -8.76589332       0.85408954
 C              7.52513000       8.49407000      11.94969000              NaN              NaN              NaN      -8.76218318       0.85396964
 C              8.28815000       9.66528000      11.88021000              NaN              NaN              NaN      -8.76414591       0.85397520
 C              9.72519000       9.58294000      11.69074000              NaN              NaN              NaN      -8.76204864       0.85408450
 C              6.04281000       5.93248000       8.54449000              NaN              NaN              NaN      -8.76331583       0.85394107
 C              5.48781000       6.88671000       9.48799000              NaN              NaN              NaN      -8.76646400       0.85397162
 C              7.19130000       5.20716000       8.87936000              NaN              NaN              NaN      -8.76283293       0.85407920
 C              6.09683000       7.07853000      10.73395000              NaN              NaN              NaN      -8.76536880       0.85384843
 C              6.24545000       8.42128000      11.26831000              NaN              NaN              NaN      -8.76638363       0.85404744
 C              5.00000000       8.02796000       8.73412000              NaN              NaN              NaN      -8.76388015       0.85401308
 C              5.14341000       9.32046000       9.25092000              NaN              NaN              NaN      -8.76202490       0.85408342
 C              5.77472000       9.52231000      10.54328000              NaN              NaN              NaN      -8.76573832       0.85401938
 C              8.09699000       5.52910000       6.60450000              NaN              NaN              NaN      -8.76325532       0.85381601
 C              6.90696000       6.28678000       6.25862000              NaN              NaN              NaN      -8.76828689       0.85407565
 C              8.23661000       5.00000000       7.89356000              NaN              NaN              NaN      -8.76461989       0.85397476
 C              5.89729000       6.48231000       7.20819000              NaN              NaN              NaN      -8.76629516       0.85397937
 C              5.25014000       7.77861000       7.32528000              NaN              NaN              NaN      -8.76794148       0.85397970
 C              7.30750000       7.38081000       5.39018000              NaN              NaN              NaN      -8.76200487       0.85407898
 C              6.68539000       8.62933000       5.50232000              NaN              NaN              NaN      -8.76596413       0.85409230
 C              5.63711000       8.83263000       6.48814000              NaN              NaN              NaN      -8.76597673       0.85402605
 C             10.61144000       5.67417000       7.94558000              NaN              NaN              NaN      -8.76631119       0.85404640
 C             10.46803000       6.22407000       6.60851000              NaN              NaN              NaN      -8.76601293       0.85392756
 C              9.51581000       5.07072000       8.57587000              NaN              NaN              NaN      -8.76622028       0.85400528
 C              9.23212000       6.15584000       5.95340000              NaN              NaN              NaN      -8.76682355       0.85403410
 C              8.74452000       7.29848000       5.20075000              NaN              NaN              NaN      -8.76416670       0.85397518
 C             11.25804000       7.44140000       6.53754000              NaN              NaN              NaN      -8.76580774       0.85401177
 C             10.78743000       8.54244000       5.81255000       0.17637102      -0.22998451       0.07404935              NaN       0.85404610
 C              9.50772000       8.46964000       5.13124000      -0.13202415      -0.24339271      -0.07148258              NaN       0.85397400
 C             10.11096000       6.16490000      10.70855000      -0.13711438      -0.25000471      -0.09406477              NaN       0.85416549
 C             11.24922000       6.78972000      10.05652000       0.08868583      -0.11083770      -0.28207378              NaN       0.85395653
 C              9.26140000       5.31910000       9.98455000       0.21320343       0.16091800       0.18532387              NaN       0.85396393
 C             11.49086000       6.55105000       8.69835000       0.03036027      -0.02562154       0.31845127              NaN       0.85409401
 C             11.88928000       7.64325000       7.82994000       0.12986249       0.21796787       0.04432042              NaN       0.85407944
 C             11.39574000       8.13108000      10.59273000       0.10658890       0.23641110      -0.10550881              NaN       0.85402301
 C             11.78269000       9.18516000       9.75574000      -0.05398778      -0.21419211       0.20979496              NaN       0.85397913
 C             12.03279000       8.93571000       8.34690000       0.07160176      -0.26460788      -0.10668296              NaN       0.85401390
 C              9.74533000      10.63990000       6.00027000      -0.10466404       0.25108136       0.11507412              NaN       0.85398045
 C             10.93620000       9.88519000       6.34702000       0.16859426       0.04837765       0.24565045              NaN       0.85384544
 C             11.54502000      10.07699000       7.59304000      -0.04376157      -0.01152380      -0.25113352              NaN       0.85397820
 C              9.20974000      11.55982000       6.90925000       0.09918478      -0.11072689      -0.23077963              NaN       0.85401128
 C              6.92189000      10.79886000       6.37217000       0.13680356       0.25054822       0.09491402              NaN       0.85416025
 C              7.47719000       9.84434000       5.42897000       0.25944198       0.01397203      -0.08815380              NaN       0.85399212
 C              8.86285000       9.76560000       5.24659000      -0.26731631       0.06730276      -0.02214048              NaN       0.85396489
 C              7.77145000      11.64456000       7.09627000      -0.21424055      -0.16045540      -0.18585933              NaN       0.85396044
 C              6.42112000      11.28960000       9.13514000       0.20613162       0.19778807      -0.11336838              NaN       0.85404620
 C              5.54173000      10.41268000       8.38235000      -0.02842240       0.02457106      -0.31752535              NaN       0.85409674
 C              5.78360000      10.17405000       7.02416000      -0.09107537       0.11059169       0.28676268              NaN       0.85396315
 C              7.51683000      11.89289000       8.50490000      -0.31619421      -0.07257909       0.14147741              NaN       0.85400301
 C              8.93558000      11.43467000      10.47645000       0.00220610       0.16237376      -0.27724745              NaN       0.85381398
 C              7.80046000      10.80795000      11.12755000      -0.34146144       0.03567446      -0.05589064              NaN       0.85403666
 C              6.56458000      10.73974000      10.47227000       0.24917517       0.03416826       0.17610999              NaN       0.85393602
 C              8.79593000      11.96360000       9.18735000       0.05122322      -0.02326801       0.29438310              NaN       0.85397361
 C             10.98991000      11.03123000       8.53658000      -0.16622130       0.21233270      -0.06287869              NaN       0.85394506
 C             11.13547000      10.48148000       9.87290000      -0.14633429       0.04920068       0.21805228              NaN       0.85398101
 C             10.12566000      10.67705000      10.82237000       0.27927110      -0.01081936      -0.12123997              NaN       0.85408165
 C              9.84135000      11.75643000       8.20170000       0.28050173      -0.01873795       0.03241696              NaN       0.85408118
