      60
 Properties=species:S:1:pos:R:3:forces:R:3:local_energy:R:1:hirshfeld_v:R:1 Lattice="200.0000000000      0.0000000000    0.0000000000    0.0000000000  200.0000000000    0.0000000000    0.0000000000    0.0000000000  200.0000000000" energy=-525.883175 virial="1.87604668           -0.29654412      0.02523265     -0.29654412      1.65077359      0.08621061      0.02523265      0.08621061      1.62106281" stress="-0.00000023           0.00000004     -0.00000000      0.00000004     -0.00000021     -0.00000001     -0.00000000     -0.00000001     -0.00000020" volume=8000000.000000
 C              7.28766000       6.32384000      11.08071000       1.25191629      -0.21153771      -0.69641128      -8.76549250       0.85398012
 C              8.17010000       7.19820000      11.83431000       0.68593364       0.07825185      -0.45375490      -8.76659836       0.85395875
 C              7.82312000       5.40379000      10.17174000      -0.15185285       0.76371717       0.26179867      -8.76428907       0.85401314
 C              9.55575000       7.11947000      11.65181000      -0.76644691       0.18239738      -0.26322035      -8.76147980       0.85399506
 C             10.34747000       8.33446000      11.57854000      -0.46245334       0.63835234      -0.26608209      -8.76554262       0.85408954
 C              7.52513000       8.49407000      11.94969000       0.46278297       0.55395974      -0.38498379      -8.76183708       0.85396964
 C              8.28815000       9.66528000      11.88021000      -0.33770081      -0.67699439      -0.31322105      -8.76379958       0.85397520
 C              9.72519000       9.58294000      11.69074000       0.17498958      -0.66206491      -0.40041590      -8.76170023       0.85408450
 C              6.04281000       5.93248000       8.54449000       0.79263474      -0.07635616       0.15144627      -8.76296892       0.85394107
 C              5.48781000       6.88671000       9.48799000       0.60096903       0.27252826       0.46269861      -8.76611748       0.85397162
 C              7.19130000       5.20716000       8.87936000      -0.41621554       0.63183568      -0.16472285      -8.76248856       0.85407920
 C              6.09683000       7.07853000      10.73395000      -0.02118064       0.08441544      -0.86587656      -8.76502099       0.85384843
 C              6.24545000       8.42128000      11.26831000      -0.00804897       0.53437426      -0.62728065      -8.76603412       0.85404744
 C              5.00000000       8.02796000       8.73412000       0.42319948       0.67009112       0.21877411      -8.76353105       0.85401308
 C              5.14341000       9.32046000       9.25092000       0.26585065      -0.67018153      -0.27448772      -8.76167952       0.85408342
 C              5.77472000       9.52231000      10.54328000       0.52191304      -0.64911944       0.12935431      -8.76538953       0.85401938
 C              8.09699000       5.52910000       6.60450000       0.08755009       0.08387624       0.86985990      -8.76290760       0.85381601
 C              6.90696000       6.28678000       6.25862000      -0.33904573       0.34665007       0.67240179      -8.76793982       0.85407565
 C              8.23661000       5.00000000       7.89356000      -0.05148800       0.61694550      -0.55307320      -8.76427352       0.85397476
 C              5.89729000       6.48231000       7.20819000       0.75785231       0.16095103      -0.29602976      -8.76594631       0.85397937
 C              5.25014000       7.77861000       7.32528000       0.58828957       0.59191379      -0.27415539      -8.76759021       0.85397970
 C              7.30750000       7.38081000       5.39018000      -0.17398806       0.66218859       0.39964040      -8.76165651       0.85407898
 C              6.68539000       8.62933000       5.50232000       0.46122345      -0.63786329       0.26543110      -8.76561357       0.85409230
 C              5.63711000       8.83263000       6.48814000       0.17160003      -0.55910163       0.59991016      -8.76562859       0.85402605
 C             10.61144000       5.67417000       7.94558000      -0.76981710       0.01127863       0.35763694      -8.76596359       0.85404640
 C             10.46803000       6.22407000       6.60851000      -0.83094279       0.24665411      -0.09275778      -8.76566329       0.85392756
 C              9.51581000       5.07072000       8.57587000       0.47751590       0.67848876      -0.31484028      -8.76587256       0.85400528
 C              9.23212000       6.15584000       5.95340000       0.57491834       0.28854274       0.56833359      -8.76647460       0.85403410
 C              8.74452000       7.29848000       5.20075000       0.33987777       0.67966972       0.31252420      -8.76382037       0.85397518
 C             11.25804000       7.44140000       6.53754000      -0.52078416       0.64856199      -0.12853502      -8.76545901       0.85401177
 C             10.78743000       8.54244000       5.81255000       0.00750169      -0.53246124       0.62666074      -8.76600133       0.85404610
 C              9.50772000       8.46964000       5.13124000      -0.46508435      -0.55364754       0.38503362      -8.76190448       0.85397400
 C             10.11096000       6.16490000      10.70855000      -0.57178531      -0.16991790      -0.57150348      -8.76738038       0.85416549
 C             11.24922000       6.78972000      10.05652000      -0.19992242       0.04533658      -0.83806445      -8.76301600       0.85395653
 C              9.26140000       5.31910000       9.98455000       0.34264734       0.80136362       0.18844276      -8.76647554       0.85396393
 C             11.49086000       6.55105000       8.69835000      -0.41389331       0.28650140       0.66190637      -8.76223950       0.85409401
 C             11.88928000       7.64325000       7.82994000      -0.26533942       0.67215218       0.27404806      -8.76170579       0.85407944
 C             11.39574000       8.13108000      10.59273000      -0.17127229       0.55930200      -0.59891415      -8.76571094       0.85402301
 C             11.78269000       9.18516000       9.75574000      -0.58793807      -0.59042827       0.27272037      -8.76761133       0.85397913
 C             12.03279000       8.93571000       8.34690000      -0.42416779      -0.66923906      -0.22032272      -8.76353614       0.85401390
 C              9.74533000      10.63990000       6.00027000      -0.41062694       0.20883833       0.69430757      -8.76553357       0.85398045
 C             10.93620000       9.88519000       6.34702000       0.01629130      -0.08537049       0.86313955      -8.76506450       0.85384544
 C             11.54502000      10.07699000       7.59304000      -0.60045732      -0.27166655      -0.46065927      -8.76613807       0.85397820
 C              9.20974000      11.55982000       6.90925000       0.15119698      -0.76215956      -0.26136406      -8.76418902       0.85401128
 C              6.92189000      10.79886000       6.37217000       0.57141725       0.17044394       0.57247664      -8.76733473       0.85416025
 C              7.47719000       9.84434000       5.42897000       0.76390694      -0.18518492       0.26446156      -8.76146775       0.85399212
 C              8.86285000       9.76560000       5.24659000      -0.68536664      -0.07959624       0.45377996      -8.76661918       0.85396489
 C              7.77145000      11.64456000       7.09627000      -0.34356065      -0.80081795      -0.18895563      -8.76652975       0.85396044
 C              6.42112000      11.28960000       9.13514000       0.76951225      -0.01283220      -0.35600276      -8.76589942       0.85404620
 C              5.54173000      10.41268000       8.38235000       0.41613681      -0.28788162      -0.66042901      -8.76236744       0.85409674
 C              5.78360000      10.17405000       7.02416000       0.19723666      -0.04556092       0.84301444      -8.76311976       0.85396315
 C              7.51683000      11.89289000       8.50490000      -0.47600386      -0.67689517       0.31448788      -8.76579116       0.85400301
 C              8.93558000      11.43467000      10.47645000      -0.08707203      -0.08463472      -0.86895549      -8.76283492       0.85381398
 C              7.80046000      10.80795000      11.12755000      -0.57538674      -0.29011561      -0.56993852      -8.76655194       0.85403666
 C              6.56458000      10.73974000      10.47227000       0.83311547      -0.24794060       0.09474412      -8.76578466       0.85393602
 C              8.79593000      11.96360000       9.18735000       0.05308783      -0.61541370       0.55276915      -8.76424338       0.85397361
 C             10.98991000      11.03123000       8.53658000      -0.79224868       0.07592961      -0.15257869      -8.76297425       0.85394506
 C             11.13547000      10.48148000       9.87290000      -0.75902590      -0.16229221       0.29416291      -8.76593075       0.85398101
 C             10.12566000      10.67705000      10.82237000       0.34157780      -0.34829354      -0.67337398      -8.76802220       0.85408165
 C              9.84135000      11.75643000       8.20170000       0.41825927      -0.63138182       0.16422308      -8.76241814       0.85408118
