       8
 Properties=species:S:1:pos:R:3:forces:R:3:local_energy:R:1:hirshfeld_v:R:1 Lattice="6.6272000000        0.0000000000    0.0000000000    0.0000000000   20.9600000000    0.0000000000    0.0000000000    0.0000000000    8.7526000000" energy=-4.516673 virial="-9.15916581           0.00000000      0.00000000      0.00000000     -6.57603365      0.00001129      0.00000000      0.00002082     -8.07718640" stress="0.00753351           -0.00000000     -0.00000000     -0.00000000      0.00540886     -0.00000001     -0.00000000     -0.00000002      0.00664357" volume=1215.789636
 P              3.31360000       2.13080608       0.70510946      -0.00000265      -0.38117243       0.48427570      -0.56458414       1.01510769
 P              3.31360000      18.82919392       8.04749054      -0.00000265       0.38117243      -0.48427570      -0.56458414       1.01510769
 P              0.00000000       2.13080608       3.67119054       0.00000265      -0.38117484      -0.48427490      -0.56458414       1.01510769
 P              0.00000000      18.82919392       5.08140946       0.00000265       0.38117484       0.48427490      -0.56458414       1.01510769
 P              0.00000000      12.61080608       0.70510946       0.00000265      -0.38117243       0.48427570      -0.56458414       1.01510769
 P              0.00000000       8.34919392       8.04749054       0.00000265       0.38117243      -0.48427570      -0.56458414       1.01510769
 P              3.31360000      12.61080608       3.67119054      -0.00000265      -0.38117484      -0.48427490      -0.56458414       1.01510769
 P              3.31360000       8.34919392       5.08140946      -0.00000265       0.38117484       0.48427490      -0.56458414       1.01510769
