       8
 Properties=species:S:1:pos:R:3:velocities:R:3:forces:R:3:local_energy:R:1:hirshfeld_v:R:1:fix_atoms:S:3 Lattice="6.6272000000        0.0000000000    0.0000000000    0.0000000000   20.9600000000    0.0000000000    0.0000000000    0.0000000000    8.7526000000" temperature=268.23950186 pressure=-10246.81777012 time_step=1.0000 time=0.0000 energy=-4.516673 virial="-9.15916581           0.00000000      0.00000000      0.00000000     -6.57603365      0.00001129      0.00000000      0.00002082     -8.07718640" stress="0.00753351           -0.00000000     -0.00000000     -0.00000000      0.00540886     -0.00000001     -0.00000000     -0.00000002      0.00664357" volume=1215.789636 step=0
 P              3.31690195       2.12818012       0.70646247       0.00330196      -0.00256658       0.00127757      -0.00000265      -0.38117243       0.48427570      -0.56458414       1.01510769 F F F
 P              3.30991653      18.83111960       8.05111996      -0.00368347       0.00186631       0.00370485      -0.00000265       0.38117243      -0.48427570      -0.56458414       1.01510769 F F F
 P              6.62510615       2.13307724       3.67195481      -0.00209385       0.00233054       0.00083970       0.00000265      -0.38117484      -0.48427490      -0.56458414       1.01510769 F F F
 P              0.00246331      18.82516999       5.07755471       0.00246330      -0.00408330      -0.00393019       0.00000265       0.38117484       0.48427490      -0.56458414       1.01510769 F F F
 P              0.00132609      12.61365847       0.70848914       0.00132609       0.00291177       0.00330424       0.00000265      -0.38117243       0.48427570      -0.56458414       1.01510769 F F F
 P              0.00043428       8.34620801       8.04674901       0.00043428      -0.00304528      -0.00066610       0.00000265       0.38117243      -0.48427570      -0.56458414       1.01510769 F F F
 P              3.31299633      12.61167777       3.67058461      -0.00060366       0.00093107      -0.00053050      -0.00000265      -0.38117484      -0.48427490      -0.56458414       1.01510769 F F F
 P              3.31245536       8.35090878       5.07748531      -0.00114463       0.00165549      -0.00399959      -0.00000265       0.38117484       0.48427490      -0.56458414       1.01510769 F F F
       8
 Properties=species:S:1:pos:R:3:velocities:R:3:forces:R:3:local_energy:R:1:hirshfeld_v:R:1:fix_atoms:S:3 Lattice="6.6272000000        0.0000000000    0.0000000000    0.0000000000   20.9600000000    0.0000000000    0.0000000000    0.0000000000    8.7526000000" temperature=254.29936372 pressure=-13502.62408404 time_step=1.0000 time=10.0000 energy=-4.517698 virial="-11.87086173         -0.03120530     -0.48946122     -0.03123644     -8.76654294     -0.07596512     -0.48984227     -0.07576009    -10.56162575" stress="0.00976391            0.00002567      0.00040259      0.00002569      0.00721058      0.00006248      0.00040290      0.00006231      0.00868705" volume=1215.789636 step=10
 P              3.34985300       2.09546393       0.72793195       0.00331164      -0.00375541       0.00271353       0.06894509      -0.44314942       0.47796638      -0.58372131       1.01663024 F F F
 P              3.27314937      18.85694126       8.07923931      -0.00369379       0.00307455       0.00225183      -0.07185996       0.44282088      -0.39796140      -0.56035779       1.01475337 F F F
 P              6.60401458       2.14917907       3.67101005      -0.00214469       0.00114238      -0.00072577      -0.07296480      -0.35136444      -0.52030737      -0.56404945       1.01504386 F F F
 P              0.02725238      18.79183740       5.04751719       0.00251513      -0.00284183      -0.00240384       0.07588034       0.35164157       0.44029318      -0.54059696       1.01315022 F F F
 P              0.01454897      12.63569360       0.75045021       0.00132765       0.00175578       0.00480622       0.02626084      -0.31815170       0.55940601      -0.57036343       1.01554732 F F F
 P              0.00486546       8.32289483       8.03125683       0.00045770      -0.00187757      -0.00212818       0.02355508       0.32291307      -0.48372725      -0.54766833       1.01373887 F F F
 P              3.30686995      12.61360280       3.65610098      -0.00062853      -0.00030692      -0.00207033      -0.02742375      -0.40842062      -0.53049413      -0.58676519       1.01687271 F F F
 P              3.30104629       8.37438720       5.04689349      -0.00114512       0.00280902      -0.00244346      -0.02239194       0.40375353       0.45482567      -0.56417588       1.01507857 F F F
