      60
 Properties=species:S:1:pos:R:3:forces:R:3:local_energy:R:1:hirshfeld_v:R:1 Lattice="200.0000000000      0.0000000000    0.0000000000    0.0000000000  200.0000000000    0.0000000000    0.0000000000    0.0000000000  200.0000000000" energy=-525.800099 virial="1.87604668           -0.29654412      0.02523265     -0.29654412      1.65077359      0.08621061      0.02523265      0.08621061      1.62106281" stress="-0.00000023           0.00000004     -0.00000000      0.00000004     -0.00000021     -0.00000001     -0.00000000     -0.00000001     -0.00000020" volume=8000000.000000
 C              7.28766000       6.32384000      11.08071000       0.44633910      -0.17409206      -0.75183838      -8.76410325       0.85398012
 C              8.17010000       7.19820000      11.83431000       0.72974705       0.12707957      -0.51339326      -8.76521410       0.85395875
 C              7.82312000       5.40379000      10.17174000      -0.14819730       0.84031516       0.29162629      -8.76290791       0.85401314
 C              9.55575000       7.11947000      11.65181000      -0.83046782       0.19180457      -0.32611374      -8.76009443       0.85399506
 C             10.34747000       8.33446000      11.57854000      -0.51232139       0.63956468      -0.31219296      -8.76415986       0.85408954
 C              7.52513000       8.49407000      11.94969000       0.50630835       0.60633629      -0.44577596      -8.76044560       0.85396964
 C              8.28815000       9.66528000      11.88021000      -0.34830134      -0.74368011      -0.41798001      -8.76241603       0.85397520
 C              9.72519000       9.58294000      11.69074000       0.16176628      -0.71316520      -0.48631872      -8.76031622       0.85408450
 C              6.04281000       5.93248000       8.54449000       0.87927127      -0.00163947       0.18682895      -8.76158189       0.85394107
 C              5.48781000       6.88671000       9.48799000       0.67820459       0.34932073       0.50305423      -8.76472901       0.85397162
 C              7.19130000       5.20716000       8.87936000      -0.41379346       0.71589155      -0.13798679      -8.76110188       0.85407920
 C              6.09683000       7.07853000      10.73395000       0.01986677       0.12607434      -0.94606529      -8.76363126       0.85384843
 C              6.24545000       8.42128000      11.26831000       0.02703793       0.57569124      -0.67589968      -8.76464194       0.85404744
 C              5.00000000       8.02796000       8.73412000       0.50521699       0.75407953       0.25566650      -8.76214383       0.85401308
 C              5.14341000       9.32046000       9.25092000       0.32781844      -0.67948563      -0.31008724      -8.76029782       0.85408342
 C              5.77472000       9.52231000      10.54328000       0.59016943      -0.66301428       0.09341577      -8.76400453       0.85401938
 C              8.09699000       5.52910000       6.60450000       0.10342342       0.14286451       0.98741576      -8.76152183       0.85381601
 C              6.90696000       6.28678000       6.25862000      -0.32885954       0.39997945       0.76746666      -8.76655457       0.85407565
 C              8.23661000       5.00000000       7.89356000      -0.05217801       0.70746793      -0.53166509      -8.76289179       0.85397476
 C              5.89729000       6.48231000       7.20819000       0.84442690       0.23700859      -0.26590591      -8.76455866       0.85397937
 C              5.25014000       7.77861000       7.32528000       0.67388347       0.67919534      -0.23717665      -8.76621135       0.85397970
 C              7.30750000       7.38081000       5.39018000      -0.16073897       0.71310010       0.48553128      -8.76027206       0.85407898
 C              6.68539000       8.62933000       5.50232000       0.51101379      -0.63934250       0.31201313      -8.76423037       0.85409230
 C              5.63711000       8.83263000       6.48814000       0.22096828      -0.57551327       0.65254067      -8.76424653       0.85402605
 C             10.61144000       5.67417000       7.94558000      -0.84765109       0.01834654       0.39617346      -8.76458662       0.85404640
 C             10.46803000       6.22407000       6.60851000      -0.91300476       0.26003803      -0.06304784      -8.76428548       0.85392756
 C              9.51581000       5.07072000       8.57587000       0.49110485       0.78466399      -0.28902835      -8.76448891       0.85400528
 C              9.23212000       6.15584000       5.95340000       0.59232723       0.34696617       0.66141822      -8.76508586       0.85403410
 C              8.74452000       7.29848000       5.20075000       0.35079705       0.74615729       0.41726540      -8.76243683       0.85397518
 C             11.25804000       7.44140000       6.53754000      -0.58886898       0.66240635      -0.09258087      -8.76407390       0.85401177
 C             10.78743000       8.54244000       5.81255000      -0.02787062      -0.57434528       0.67553592      -8.76460868       0.85404610
 C              9.50772000       8.46964000       5.13124000      -0.50859616      -0.60594492       0.44591281      -8.76051349       0.85397400
 C             10.11096000       6.16490000      10.70855000      -0.62217351      -0.17152484      -0.62655006      -8.76599757       0.85416549
 C             11.24922000       6.78972000      10.05652000      -0.25979015       0.05541246      -0.91544198      -8.76163258       0.85395653
 C              9.26140000       5.31910000       9.98455000       0.35265942       0.90497553       0.21998185      -8.76509520       0.85396393
 C             11.49086000       6.55105000       8.69835000      -0.48654781       0.30341301       0.70155031      -8.76085546       0.85409401
 C             11.88928000       7.64325000       7.82994000      -0.32703746       0.68121158       0.30987717      -8.76032421       0.85407944
 C             11.39574000       8.13108000      10.59273000      -0.22066815       0.57586535      -0.65165936      -8.76432857       0.85402301
 C             11.78269000       9.18516000       9.75574000      -0.67374017      -0.67829498       0.23549679      -8.76623225       0.85397913
 C             12.03279000       8.93571000       8.34690000      -0.50609250      -0.75322550      -0.25732926      -8.76214932       0.85401390
 C              9.74533000      10.63990000       6.00027000      -0.44714731       0.17268133       0.75065148      -8.76414435       0.85398045
 C             10.93620000       9.88519000       6.34702000      -0.02463620      -0.12642241       0.94326774      -8.76367514       0.85384544
 C             11.54502000      10.07699000       7.59304000      -0.67790492      -0.34868758      -0.50094722      -8.76474974       0.85397820
 C              9.20974000      11.55982000       6.90925000       0.14733646      -0.83841464      -0.29125038      -8.76280772       0.85401128
 C              6.92189000      10.79886000       6.37217000       0.62204443       0.17202577       0.62786790      -8.76595180       0.85416025
 C              7.47719000       9.84434000       5.42897000       0.82786588      -0.19400948       0.32697981      -8.76008285       0.85399212
 C              8.86285000       9.76560000       5.24659000      -0.72933221      -0.12867308       0.51375092      -8.76523505       0.85396489
 C              7.77145000      11.64456000       7.09627000      -0.35387603      -0.90428398      -0.22031208      -8.76514929       0.85396044
 C              6.42112000      11.28960000       9.13514000       0.84782209      -0.01994816      -0.39468427      -8.76452276       0.85404620
 C              5.54173000      10.41268000       8.38235000       0.48889212      -0.30417459      -0.70043115      -8.76098399       0.85409674
 C              5.78360000      10.17405000       7.02416000       0.25738502      -0.05602535       0.92072471      -8.76173640       0.85396315
 C              7.51683000      11.89289000       8.50490000      -0.48952887      -0.78258255       0.28890810      -8.76440749       0.85400301
 C              8.93558000      11.43467000      10.47645000      -0.10292324      -0.14389268      -0.98687350      -8.76144899       0.85381398
 C              7.80046000      10.80795000      11.12755000      -0.59309656      -0.34822758      -0.66330514      -8.76516339       0.85403666
 C              6.56458000      10.73974000      10.47227000       0.91525161      -0.26170318       0.06491676      -8.76440741       0.85393602
 C              8.79593000      11.96360000       9.18735000       0.05404048      -0.70571026       0.53110921      -8.76286154       0.85397361
 C             10.98991000      11.03123000       8.53658000      -0.87876516       0.00104586      -0.18783288      -8.76158745       0.85394506
 C             11.13547000      10.48148000       9.87290000      -0.84589311      -0.23776980       0.26406316      -8.76454334       0.85398101
 C             10.12566000      10.67705000      10.82237000       0.33127617      -0.40204265      -0.76850381      -8.76663732       0.85408165
 C              9.84135000      11.75643000       8.20170000       0.41573274      -0.71514042       0.13715948      -8.76103119       0.85408118
