     125
 Properties=species:S:1:pos:R:3:forces:R:3:local_energy:R:1:hirshfeld_v:R:1 Lattice="9.1075620000        0.0000000000    0.0000000000    0.0000000000    9.1075620000    0.0000000000    0.0000000000    0.0000000000    9.1075620000" energy=-970.011174 virial="188.19717516         17.83754893      2.58424488     17.83754893    203.98105089    -30.09435732      2.58424488    -30.09435732    185.86583351" stress="-0.24911891          -0.02361178     -0.00342080     -0.02361178     -0.27001222      0.03983627     -0.00342080      0.03983627     -0.24603288" volume=755.451189
 C              8.35934846       3.10682619       2.98379214      -5.53833059       0.23559434      -1.80191343      -7.98941606       0.91770678
 C              5.91582600       0.89333343       3.67235115      -3.37524965       4.20891749      -7.09566950      -7.94376213       0.92138203
 C              5.96669174       4.33999920       0.28897383       5.81596987       3.31710867       4.30501762      -8.51704413       0.91693579
 C              6.75613521       8.63649157       1.53293019       1.16029151      -3.20233813       4.47574658      -8.68491219       0.91447894
 C              5.84463219       6.01508932       0.81335993      -5.36981283      -4.17040256       1.81608980      -6.68037833       0.91954298
 C              8.63925116       0.96398990       5.59148751       2.33434187       2.37438253       4.82874122      -8.13831949       0.91705437
 C              5.34793308       6.63465855       2.07477548      -0.96938163       2.86390715       0.09698052      -7.98341345       0.91808636
 C              2.65213116       1.97904590       3.77758903       0.04564268       4.76353576      -0.17181403      -8.32600419       0.91008404
 C              6.41502969       0.50814731       4.91399418       2.52035495      -3.76235271      -0.91105762      -6.89487879       0.90956352
 C              4.18430542       0.13081191       0.53060656      -7.71074918      -2.37395211       5.21845210      -6.40816840       0.90775100
 C              1.20501242       7.52252745       7.85611923       0.44538423       9.12517841       3.64898298      -7.74901296       0.91359786
 C              2.38661841       0.00142989       4.84370202       6.03364656      -5.14685626      -0.80052511      -6.97950051       0.91719801
 C              6.86508898       6.60882950       0.31249867      10.79825493       4.96334909      -1.13387896      -7.03268613       0.92542595
 C              3.19257389       2.97317272       0.49341128      -2.70777135       0.72303557      -3.13968589      -6.27087283       0.91088222
 C              7.70704665       3.94912996       0.59706444      -4.30720447       1.40716285      -2.28364779      -7.56064028       0.91546613
 C              8.07495573       8.07008318       3.74463787      -0.58034169       2.18795930      -0.23332484      -7.31013621       0.91900842
 C              2.24602497       1.28535023       5.23178435      -0.80045541       6.05787688      -0.03903288      -8.18752389       0.91412362
 C              6.52342790       7.75507083       6.75200949       3.60333560       0.78455720      -1.50149978      -8.37623750       0.91749655
 C              2.11896537       8.02249617       5.81112547       1.20373721       1.86411752       4.10664789      -7.65179035       0.91375505
 C              3.30383187       7.51181695       3.36561757      -2.02306576      -0.57940439      -1.45359087      -6.69305000       0.91395174
 C              6.90350467       5.31816046       6.46059483       2.65063967       2.92160786      -0.59706077      -8.79677120       0.91459040
 C              6.04355045       5.39654014       3.94453975      -1.91738319      -0.39321514      -5.41371805      -8.25665869       0.91608046
 C              6.07887869       0.00795090       6.24465453      -1.33616263      -1.20668359      -1.71337977      -8.06203894       0.91519879
 C              3.89412939       4.19728370       0.85005430       5.05044555      -1.96733030       4.15390477      -8.04631026       0.91670630
 C              9.05672359       7.43020409       8.49744642      -9.50832626       0.24359398      -0.37893534      -8.03602423       0.91632139
 C              5.19159267       3.42395150       1.18924723      -2.54813894       1.59578461      -7.11956305      -7.91414815       0.91489599
 C              7.26396376       2.29495990       7.54791022      -5.83305896       1.56630673      -3.20834547      -8.18801064       0.90784990
 C              8.91894439       8.75143811       6.25655811      -5.47670010       0.59337512      -0.56176585      -8.56367911       0.90824935
 C              0.16529314       0.80755841       2.42479731       2.83490257      -4.02902669       8.15852544      -6.61324427       0.91635446
 C              6.94731205       0.76128289       2.30708207       0.48464478      -0.31459515       6.31787046      -8.62643213       0.91818049
 C              1.77676695       5.63142417       8.32613318       4.65576287       0.21322787      -1.25089842      -7.20580555       0.90725357
 C              3.86072285       8.54635403       4.19283921      -0.58778484      -0.04879446      -2.51057455      -8.72558660       0.90733816
 C              3.51536410       8.04354375       6.39073072      -1.98442629      -3.15183651       1.96358441      -7.59395550       0.91708477
 C              5.47101268       7.02361520       7.62841196       3.23333718       1.88771616       1.22179762      -8.67344539       0.91610341
 C              8.41016865       2.14938463       6.70108000       1.45446948      -1.05901443       1.13803868      -7.25825207       0.91369369
 C              6.27904468       6.66750953       4.54184099       2.33084975       4.47173620       2.49695758      -8.09331730       0.91747453
 C              0.25349988       5.27834220       6.12123796       3.55615393      -2.84673036       9.26540622      -6.99923607       0.92445145
 C              1.33707207       8.72950710       2.37445070      -2.40917610       2.71956219      -2.65768775      -7.05024535       0.90813773
 C              5.09368638       0.88935343       7.48541413       2.76289122      -0.79029204       5.43655082      -7.14113616       0.91065999
 C              8.97522002       3.01991273       5.77250030       7.33894750       2.54397797      -1.77547936      -7.87127535       0.92008991
 C              7.63624447       7.49841973       1.27248124      -0.72421654      -0.88608718       3.61427578      -8.08492459       0.92818553
 C              7.67297526       1.27919351       4.60898193      -0.74505541      -2.67536379      -3.82545038      -8.92686757       0.91388083
 C              6.32874465       8.78495394       0.18031151      -6.53027103       1.46347031       3.39729663      -8.37027056       0.91587786
 C              1.51064399       4.52405392       8.80993598      -0.12425356      -5.10433531       3.42398125      -6.62157348       0.91602531
 C              4.98173623       0.02755948       3.08614292      -5.73011220       0.00599948       0.28359839      -8.22848005       0.91515887
 C              2.11620578       7.64741945       0.08454550      -1.56208664       4.57690055      -3.17613271      -8.14452368       0.90608786
 C              0.49068812       2.22403021       2.50783095      -6.24938166       6.09612454       4.50181711      -8.56117101       0.91752481
 C              8.04015573       0.56145387       3.27396817       3.20305667      -3.11839277      -1.80405814      -8.78807561       0.91427825
 C              1.57107266       7.65272005       3.24220100       3.18703849       3.23712467       1.67492629      -8.52950628       0.90789386
 C              3.12226351       1.75595617       2.36408630      -0.25109695      -1.82161181       4.44819298      -7.41949826       0.90960027
 C              5.96609064       2.49327707       3.59044684      -8.39215318      -0.95140943      -1.02897059      -8.48459036       0.91211446
 C              1.11819914       3.20565235       1.64755797       4.41047202      -1.24192264      -2.14591816      -8.41644383       0.91623020
 C              1.09592204       5.43527460       2.13277244       0.64133211       0.54285361       1.39302713      -7.77819576       0.90600489
 C              7.21359894       6.68913088       5.68393837      -4.77204726      -3.46918242       3.82620895      -8.28449947       0.91437309
 C              3.16535139       4.56323465       3.26716482      -1.59476418      -2.06805049      -0.52669493      -7.09407790       0.92426688
 C              7.25825332       2.54969841       3.93933022      13.06623215       0.16219406       5.01066906      -6.92256319       0.92091154
 C              6.66485012       4.13365827       5.62837313      -1.29312557       1.08376015       6.16028342      -8.00904431       0.91294311
 C              5.88403151       5.61381925       7.50442161       2.22298409       7.14948347      -5.36761231      -7.16912992       0.91331743
 C              1.02999240       6.29921793       7.43802749       0.82625861      -4.66421471      -5.90914291      -6.46451789       0.91777022
 C              3.79428319       3.70562107       6.11882445      -8.43487848       5.09449286       0.80245314      -6.32236598       0.91304506
 C              5.92161841       8.03262378       2.53539954      -1.98243165      -0.61239632       2.88825038      -8.44017951       0.91889163
 C              2.67925348       3.67378104       8.37871114      -1.26262512      -1.25417717      -2.96785408      -8.91881190       0.91590165
 C              5.85097106       7.47756341       9.01444629      -3.10185068      -1.61537586      -5.79351967      -8.07411816       0.91876870
 C              5.92308473       3.46386995       2.31613498       4.49106281       1.52653123       9.08295385      -7.03311482       0.91835521
 C              8.50695472       6.72995097       5.20322303       3.59496092       2.96344677      -0.30822010      -7.91996863       0.91264899
 C              4.01168069       0.75493492       2.35258345       2.11968230      -1.93889203      -9.28370263      -6.37921100       0.90816303
 C              1.64661078       0.95836143       7.34550376       1.78486760       3.19485058       1.49940912      -7.65687736       0.90584223
 C              4.84733594       2.96443857       6.12668428       3.76292834     -13.55465535       3.14028665      -7.16634454       0.91630374
 C              3.44345079       8.21163291       8.86840653       1.95853950       3.16543391       3.35731147      -6.51603715       0.91738647
 C              8.23754392       5.16237562       7.16385344      -0.13128790       0.78883361      -0.25118112      -6.70912616       0.91620764
 C              2.42198307       3.36186525       6.77456892       3.03402319       2.41629713      -0.78322253      -8.26402502       0.90854113
 C              0.11127619       5.58427432       4.77957568       2.96822196       2.21063462      -1.95359001      -7.27302051       0.91581915
 C              9.06275279       0.76437946       1.17830905       1.49337504       1.87994778      -8.10926349      -6.41822873       0.92068389
 C              9.10299911       7.68381326       0.87990889      -2.76147946      -3.42920158      -3.26946467      -8.08220675       0.91253126
 C              5.54187862       4.52294280       8.06053846      -6.21279847      -8.01655809       1.30155229      -6.95687286       0.91120540
 C              3.68438224       3.22897682       3.84146036      -1.59743495      -2.73163287       0.64084528      -7.56287794       0.90552194
 C              8.23352749       6.23672184       8.39420310      -1.50739215      -3.23877403      -1.67378716      -7.50796875       0.92451079
 C              3.61444527       5.24812331       2.01487505       3.87797160      -0.85837527       4.20883004      -7.06844969       0.92592906
 C              4.21163722       1.60290359       6.78384042      -3.33829937       3.98426256      -1.79995302      -7.77966163       0.89853181
 C              4.17011584       4.81494945       5.37243243      -1.87544069       8.49885330       3.15577654      -8.52160877       0.91659093
 C              7.32645985       3.37193822       1.91190495       2.39090591      -1.64986014      -0.43298479      -8.39020602       0.91381689
 C              7.33047629       5.53033934       3.30542569      -0.77641094      -2.51907579      -0.60349172      -7.36376505       0.91370517
 C              7.73662801       6.47596839       2.42258417       5.96263295       1.34305619      -1.95867003      -7.13838870       0.91687302
 C              8.50159036       5.28158449       0.26305371       1.83146815      -4.03587334       7.83452761      -6.97922926       0.92297533
 C              0.79296810       1.66010819       5.18723926      -1.42644601       2.56418497      -5.05701865      -7.96886334       0.91886322
 C              7.93647525       2.49460677       8.82323302       1.15065933       4.83234378      -1.50416750      -7.50444853       0.91708815
 C              6.50414719       1.02782480       7.46172536       2.00159055      -0.46292850      -0.08661918      -7.92036989       0.91635407
 C              5.18595509       0.84861530       0.01607485       0.13633232       0.76451866      -0.29549255      -7.93196621       0.91180069
 C              3.80803561       6.68118908       7.12702246       1.16297160       3.00968981       2.84091045      -7.80802040       0.91411437
 C              1.36233645       1.06407290       0.67845872      -0.16007381      -0.87023916      -1.90577339      -8.43229049       0.90869583
 C              4.35111953       6.14550050       6.03891471       2.27474288      -6.93738620      -3.65548164      -6.92278882       0.91334506
 C              1.25800022       8.35427555       0.99684088       1.74275291       1.25902798       3.28018524      -7.55414941       0.90911090
 C              2.71035581       1.97185093       6.49862800      -1.77601766      -8.80361894       3.74796619      -8.39729816       0.90935708
 C              1.21259902       4.02725463       6.07770381      -3.14007473      -1.05045855       1.98632959      -6.99616862       0.91823402
 C              3.38299480       5.90325757       8.35329193      -2.45338382       1.67967029      -1.10371039      -9.42802450       0.90758344
 C              1.11688765       1.58986156       8.54461449      -0.13945269       0.71838418      -7.55425726      -6.66287021       0.90742026
 C              1.22007633       2.27733677       3.65607594       2.10276560      -1.55846074       5.88043542      -5.87272184       0.91371878
 C              0.41518643       3.90892007       0.46747294       5.16993452      -3.04500989      -5.01707537      -7.81878443       0.92589322
 C              1.28602418       8.25778093       4.62422799       1.70893125      -2.67016823      -5.20932483      -8.16513081       0.91238474
 C              7.94399809       3.51703989       4.79573249      -2.92826386       4.32329551       3.60947223      -8.17418704       0.91353868
 C              5.21852374       6.94733937       5.36344326      -3.19882926      -2.57429809      -0.31129591      -6.81983787       0.91660075
 C              6.65334727       8.00104786       4.01803777       2.37094990      -0.60475292      -4.20137193      -8.14150205       0.92282264
 C              2.11505823       4.30851436       2.13534077      -7.47178052       4.87491066       1.99748383      -7.85050064       0.92277129
 C              0.22900054       2.87700598       8.24908321      -0.92602177      -4.80884443       2.74931993      -7.79149864       0.92137732
 C              9.06153238       8.06204121       4.97881270      -4.94903517      -3.21016777       1.87844048      -8.19040579       0.91012033
 C              1.69379706       5.65246263       4.36359689      -4.04998033       1.27602286       0.10160788      -7.44388715       0.91232518
 C              8.34960337       4.78894736       4.01775544      -0.06348308      -4.92385293      -2.33175805      -8.09780073       0.90846008
 C              9.07461995       6.02763954       1.54838572      -3.45063971       0.18948911      -3.89349965      -8.00670031       0.91625455
 C              5.48737897       2.02758921       0.81266776       2.01408290       0.16426554      -0.09810081      -7.46532842       0.90984105
 C              5.47575772       4.38452607       4.81812799       0.99942951      -1.78623923      -1.99024494      -9.07385664       0.91739957
 C              7.98399851       1.25607852       0.49578835      -2.74640912       3.05743822      -5.39075992      -8.59385363       0.91178474
 C              1.28534112       6.33036580       3.15444053       1.80126813      -3.48115821       2.21432853      -7.33229391       0.91089312
 C              3.76680568       6.90565406       1.96595833      -1.84846628      -2.89726893      -1.65286883      -7.75930968       0.91595627
 C              6.01254831       3.39779459       7.04350612       2.96767062      -2.80850154      -4.86505223      -8.88519213       0.90227168
 C              4.90995953       2.91576776       4.61083077       2.56414547       4.32086051      -3.72883702      -8.95200913       0.90776685
 C              4.69083159       8.17017529       5.44941865      -5.99022469       5.93507620       2.16968953      -7.80915760       0.91846891
 C              5.01027022       5.59038549       2.96976649      -2.01511456      -0.27494941      -3.32679974      -6.24282715       0.92364771
 C              3.28068955       6.88050808       0.37709860       2.56360601       1.67018833       0.84548473      -6.97159134       0.91562991
 C              2.29620764       2.19486780       1.29786402      -1.34664057      -0.81901969      -1.76417018      -8.93617066       0.91096723
 C              7.86404281       8.19661454       7.50795535       4.44183963       2.84209854       1.24002232      -8.11414311       0.91320667
 C              7.28883651       0.24392783       8.44931296       4.13968749       0.81871265      -1.64393184      -8.39512015       0.90928889
 C              3.00047719       5.42967345       4.57430944       0.65603465      -2.30219822      -3.42609542      -7.19001149       0.91017342
 C              6.93939758       1.91383576       1.38696329      -2.28166007      -3.93857274       0.15755546      -8.61590722       0.92330366
 C              1.09663243       8.80526380       6.89768494       6.89694036      -4.84610667       2.32627932      -9.20685143       0.90622559
 C              3.90606030       4.57209631       8.50600753       2.24570525       2.34159454      -0.36538663      -8.73339497       0.90958477
