      60
 Properties=species:S:1:pos:R:3:forces:R:3:local_energy:R:1:hirshfeld_v:R:1 Lattice="200.0000000000      0.0000000000    0.0000000000    0.0000000000  200.0000000000    0.0000000000    0.0000000000    0.0000000000  200.0000000000" energy=-525.915475 virial="1.87604668           -0.29654412      0.02523265     -0.29654412      1.65077359      0.08621061      0.02523265      0.08621061      1.62106281" stress="-0.00000023           0.00000004     -0.00000000      0.00000004     -0.00000021     -0.00000001     -0.00000000     -0.00000001     -0.00000020" volume=8000000.000000
 C              7.28766000       6.32384000      11.08071000       0.10872618      -0.23388743      -0.12628145      -8.76601231       0.85398012
 C              8.17010000       7.19820000      11.83431000       0.26188217      -0.06039645       0.00344115      -8.76713818       0.85395875
 C              7.82312000       5.40379000      10.17174000      -0.09259684       0.12522590       0.21576485      -8.76481914       0.85401314
 C              9.55575000       7.11947000      11.65181000      -0.25957157      -0.00870234       0.06900258      -8.76202793       0.85399506
 C             10.34747000       8.33446000      11.57854000      -0.06188276       0.27478122       0.08135534      -8.76608394       0.85408954
 C              7.52513000       8.49407000      11.94969000       0.13118735       0.23661565       0.05131074      -8.76236641       0.85396964
 C              8.28815000       9.66528000      11.88021000      -0.15627854      -0.20879938       0.07394642      -8.76434723       0.85397520
 C              9.72519000       9.58294000      11.69074000       0.15584900      -0.18340849       0.02255134      -8.76221367       0.85408450
 C              6.04281000       5.93248000       8.54449000       0.17482784      -0.19311690       0.05998883      -8.76351853       0.85394107
 C              5.48781000       6.88671000       9.48799000       0.05891812       0.02071786       0.24006293      -8.76663804       0.85397162
 C              7.19130000       5.20716000       8.87936000      -0.26342770       0.03467534      -0.03297991      -8.76298751       0.85407920
 C              6.09683000       7.07853000      10.73395000      -0.15484357      -0.03950834      -0.25398819      -8.76559280       0.85384843
 C              6.24545000       8.42128000      11.26831000      -0.15997660       0.22552439      -0.08684075      -8.76654984       0.85404744
 C              5.00000000       8.02796000       8.73412000      -0.05185103       0.26022041       0.10111336      -8.76406451       0.85401308
 C              5.14341000       9.32046000       9.25092000      -0.10769681      -0.21317031      -0.04600175      -8.76219785       0.85408342
 C              5.77472000       9.52231000      10.54328000       0.05311208      -0.21654826       0.18166384      -8.76593569       0.85401938
 C              8.09699000       5.52910000       6.60450000      -0.00006883      -0.14241568       0.28220113      -8.76349169       0.85381601
 C              6.90696000       6.28678000       6.25862000      -0.26125090       0.02143884       0.12843790      -8.76846283       0.85407565
 C              8.23661000       5.00000000       7.89356000      -0.04741151       0.04259504      -0.28306617      -8.76480362       0.85397476
 C              5.89729000       6.48231000       7.20819000       0.15488840      -0.03707638      -0.20564475      -8.76649436       0.85397937
 C              5.25014000       7.77861000       7.32528000       0.07159133       0.21345913      -0.19886328      -8.76815008       0.85397970
 C              7.30750000       7.38081000       5.39018000      -0.15488656       0.18336928      -0.02318457      -8.76217070       0.85407898
 C              6.68539000       8.62933000       5.50232000       0.06072897      -0.27415135      -0.08182700      -8.76615392       0.85409230
 C              5.63711000       8.83263000       6.48814000      -0.08637195      -0.23205433       0.11356778      -8.76615791       0.85402605
 C             10.61144000       5.67417000       7.94558000      -0.21263584      -0.17856097       0.11483520      -8.76650396       0.85404640
 C             10.46803000       6.22407000       6.60851000      -0.25166063      -0.02162629      -0.15900604      -8.76622299       0.85392756
 C              9.51581000       5.07072000       8.57587000       0.30475453       0.09114526      -0.13839864      -8.76641791       0.85400528
 C              9.23212000       6.15584000       5.95340000       0.32858076      -0.02317130       0.06612396      -8.76698481       0.85403410
 C              8.74452000       7.29848000       5.20075000       0.15859581       0.21162114      -0.07457661      -8.76436795       0.85397518
 C             11.25804000       7.44140000       6.53754000      -0.05197206       0.21590189      -0.18090471      -8.76600494       0.85401177
 C             10.78743000       8.54244000       5.81255000       0.15953978      -0.22376198       0.08619007      -8.76651693       0.85404610
 C              9.50772000       8.46964000       5.13124000      -0.13331286      -0.23628649      -0.05113594      -8.76243411       0.85397400
 C             10.11096000       6.16490000      10.70855000      -0.14170110      -0.23070946      -0.10289336      -8.76789108       0.85416549
 C             11.24922000       6.78972000      10.05652000       0.07068543      -0.09938711      -0.28315073      -8.76358984       0.85395653
 C              9.26140000       5.31910000       9.98455000       0.20365909       0.17484792       0.17240640      -8.76705543       0.85396393
 C             11.49086000       6.55105000       8.69835000       0.01368885      -0.01516013       0.30916887      -8.76276883       0.85409401
 C             11.88928000       7.64325000       7.82994000       0.10828019       0.21519841       0.04561290      -8.76222355       0.85407944
 C             11.39574000       8.13108000      10.59273000       0.08679855       0.23226049      -0.11267617      -8.76624035       0.85402301
 C             11.78269000       9.18516000       9.75574000      -0.07121434      -0.21205705       0.19741515      -8.76817150       0.85397913
 C             12.03279000       8.93571000       8.34690000       0.05103278      -0.25953825      -0.10253892      -8.76406983       0.85401390
 C              9.74533000      10.63990000       6.00027000      -0.10902718       0.23246345       0.12491628      -8.76605359       0.85398045
 C             10.93620000       9.88519000       6.34702000       0.15049058       0.03874641       0.25127995      -8.76563806       0.85384544
 C             11.54502000      10.07699000       7.59304000      -0.05841326      -0.02002035      -0.23773566      -8.76665782       0.85397820
 C              9.20974000      11.55982000       6.90925000       0.09192080      -0.12382449      -0.21529686      -8.76471821       0.85401128
 C              6.92189000      10.79886000       6.37217000       0.14138986       0.23125905       0.10374473      -8.76784589       0.85416025
 C              7.47719000       9.84434000       5.42897000       0.25736026       0.00629171      -0.06820264      -8.76201665       0.85399212
 C              8.86285000       9.76560000       5.24659000      -0.26105537       0.05907718      -0.00329553      -8.76715865       0.85396489
 C              7.77145000      11.64456000       7.09627000      -0.20469600      -0.17438600      -0.17293930      -8.76710963       0.85396044
 C              6.42112000      11.28960000       9.13514000       0.21216626       0.17715779      -0.11342126      -8.76644010       0.85404620
 C              5.54173000      10.41268000       8.38235000      -0.01175875       0.01411335      -0.30824631      -8.76289786       0.85409674
 C              5.78360000      10.17405000       7.02416000      -0.07307516       0.09913488       0.28783344      -8.76369379       0.85396315
 C              7.51683000      11.89289000       8.50490000      -0.30352482      -0.08956845       0.13804814      -8.76633603       0.85400301
 C              8.93558000      11.43467000      10.47645000       0.00038269       0.14154729      -0.28122571      -8.76341938       0.85381398
 C              7.80046000      10.80795000      11.12755000      -0.32954560       0.02188958      -0.06762878      -8.76706323       0.85403666
 C              6.56458000      10.73974000      10.47227000       0.25354655       0.02031315       0.16065077      -8.76634467       0.85393602
 C              8.79593000      11.96360000       9.18735000       0.04878726      -0.04127582       0.28264839      -8.76477330       0.85397361
 C             10.98991000      11.03123000       8.53658000      -0.17429407       0.19244243      -0.06089914      -8.76352391       0.85394506
 C             11.13547000      10.48148000       9.87290000      -0.15608880       0.03606487       0.20426061      -8.76647998       0.85398101
 C             10.12566000      10.67705000      10.82237000       0.26341290      -0.02311575      -0.12924101      -8.76854533       0.85408165
 C              9.84135000      11.75643000       8.20170000       0.26530930      -0.03441363       0.03254875      -8.76291645       0.85408118
