      54
 Properties=species:S:1:pos:R:3:forces:R:3:local_energy:R:1:hirshfeld_v:R:1 Lattice="54.6453720000       0.0000000000    0.0000000000    0.0000000000   54.6453720000    0.0000000000    0.0000000000    0.0000000000   54.6453720000" energy=-23.280261 virial="-2.42187477          -3.50629629    -18.71714712     -3.50629629     -5.07627968    -27.09795913    -18.71714712    -27.09795913   -144.65305995" stress="0.00001484            0.00002149      0.00011470      0.00002149      0.00003111      0.00016606      0.00011470      0.00016606      0.00088648" volume=163177.456870
 C              8.35934846       3.10682619       2.98379214      -0.21229506      -0.30735254      -1.64069499      -0.43111595       1.03211558
 C              7.93647525       2.49460677      17.93079502       0.21229506       0.30735254       1.64069499      -0.43111594       1.03211558
 C              8.35934846       3.10682619      21.19891614      -0.21229506      -0.30735254      -1.64069499      -0.43111594       1.03211558
 C              7.93647525       2.49460677      36.14591902       0.21229506       0.30735254       1.64069499      -0.43111595       1.03211558
 C              8.35934846       3.10682619      39.41404014      -0.21229506      -0.30735254      -1.64069499      -0.43111595       1.03211558
 C              7.93647525       2.49460677      54.36104302       0.21229506       0.30735254       1.64069499      -0.43111595       1.03211558
 C              8.35934846      21.32195019       2.98379214      -0.21229506      -0.30735254      -1.64069499      -0.43111595       1.03211558
 C              7.93647525      20.70973077      17.93079502       0.21229506       0.30735254       1.64069499      -0.43111594       1.03211558
 C              8.35934846      21.32195019      21.19891614      -0.21229506      -0.30735254      -1.64069499      -0.43111594       1.03211558
 C              7.93647525      20.70973077      36.14591902       0.21229506       0.30735254       1.64069499      -0.43111595       1.03211558
 C              8.35934846      21.32195019      39.41404014      -0.21229506      -0.30735254      -1.64069499      -0.43111595       1.03211558
 C              7.93647525      20.70973077      54.36104302       0.21229506       0.30735254       1.64069499      -0.43111595       1.03211558
 C              8.35934846      39.53707419       2.98379214      -0.21229506      -0.30735254      -1.64069499      -0.43111594       1.03211558
 C              7.93647525      38.92485477      17.93079502       0.21229506       0.30735254       1.64069499      -0.43111594       1.03211558
 C              8.35934846      39.53707419      21.19891614      -0.21229506      -0.30735254      -1.64069499      -0.43111594       1.03211558
 C              7.93647525      38.92485477      36.14591902       0.21229506       0.30735254       1.64069499      -0.43111594       1.03211558
 C              8.35934846      39.53707419      39.41404014      -0.21229506      -0.30735254      -1.64069499      -0.43111594       1.03211558
 C              7.93647525      38.92485477      54.36104302       0.21229506       0.30735254       1.64069499      -0.43111594       1.03211558
 C             26.57447246       3.10682619       2.98379214      -0.21229506      -0.30735254      -1.64069499      -0.43111595       1.03211558
 C             26.15159925       2.49460677      17.93079502       0.21229506       0.30735254       1.64069499      -0.43111594       1.03211558
 C             26.57447246       3.10682619      21.19891614      -0.21229506      -0.30735254      -1.64069499      -0.43111594       1.03211558
 C             26.15159925       2.49460677      36.14591902       0.21229506       0.30735254       1.64069499      -0.43111595       1.03211558
 C             26.57447246       3.10682619      39.41404014      -0.21229506      -0.30735254      -1.64069499      -0.43111595       1.03211558
 C             26.15159925       2.49460677      54.36104302       0.21229506       0.30735254       1.64069499      -0.43111595       1.03211558
 C             26.57447246      21.32195019       2.98379214      -0.21229506      -0.30735254      -1.64069499      -0.43111595       1.03211558
 C             26.15159925      20.70973077      17.93079502       0.21229506       0.30735254       1.64069499      -0.43111594       1.03211558
 C             26.57447246      21.32195019      21.19891614      -0.21229506      -0.30735254      -1.64069499      -0.43111594       1.03211558
 C             26.15159925      20.70973077      36.14591902       0.21229506       0.30735254       1.64069499      -0.43111595       1.03211558
 C             26.57447246      21.32195019      39.41404014      -0.21229506      -0.30735254      -1.64069499      -0.43111595       1.03211558
 C             26.15159925      20.70973077      54.36104302       0.21229506       0.30735254       1.64069499      -0.43111595       1.03211558
 C             26.57447246      39.53707419       2.98379214      -0.21229506      -0.30735254      -1.64069499      -0.43111594       1.03211558
 C             26.15159925      38.92485477      17.93079502       0.21229506       0.30735254       1.64069499      -0.43111594       1.03211558
 C             26.57447246      39.53707419      21.19891614      -0.21229506      -0.30735254      -1.64069499      -0.43111594       1.03211558
 C             26.15159925      38.92485477      36.14591902       0.21229506       0.30735254       1.64069499      -0.43111594       1.03211558
 C             26.57447246      39.53707419      39.41404014      -0.21229506      -0.30735254      -1.64069499      -0.43111594       1.03211558
 C             26.15159925      38.92485477      54.36104302       0.21229506       0.30735254       1.64069499      -0.43111594       1.03211558
 C             44.78959646       3.10682619       2.98379214      -0.21229506      -0.30735254      -1.64069499      -0.43111595       1.03211558
 C             44.36672325       2.49460677      17.93079502       0.21229506       0.30735254       1.64069499      -0.43111594       1.03211558
 C             44.78959646       3.10682619      21.19891614      -0.21229506      -0.30735254      -1.64069499      -0.43111594       1.03211558
 C             44.36672325       2.49460677      36.14591902       0.21229506       0.30735254       1.64069499      -0.43111595       1.03211558
 C             44.78959646       3.10682619      39.41404014      -0.21229506      -0.30735254      -1.64069499      -0.43111595       1.03211558
 C             44.36672325       2.49460677      54.36104302       0.21229506       0.30735254       1.64069499      -0.43111595       1.03211558
 C             44.78959646      21.32195019       2.98379214      -0.21229506      -0.30735254      -1.64069499      -0.43111595       1.03211558
 C             44.36672325      20.70973077      17.93079502       0.21229506       0.30735254       1.64069499      -0.43111594       1.03211558
 C             44.78959646      21.32195019      21.19891614      -0.21229506      -0.30735254      -1.64069499      -0.43111594       1.03211558
 C             44.36672325      20.70973077      36.14591902       0.21229506       0.30735254       1.64069499      -0.43111595       1.03211558
 C             44.78959646      21.32195019      39.41404014      -0.21229506      -0.30735254      -1.64069499      -0.43111595       1.03211558
 C             44.36672325      20.70973077      54.36104302       0.21229506       0.30735254       1.64069499      -0.43111595       1.03211558
 C             44.78959646      39.53707419       2.98379214      -0.21229506      -0.30735254      -1.64069499      -0.43111594       1.03211558
 C             44.36672325      38.92485477      17.93079502       0.21229506       0.30735254       1.64069499      -0.43111594       1.03211558
 C             44.78959646      39.53707419      21.19891614      -0.21229506      -0.30735254      -1.64069499      -0.43111594       1.03211558
 C             44.36672325      38.92485477      36.14591902       0.21229506       0.30735254       1.64069499      -0.43111594       1.03211558
 C             44.78959646      39.53707419      39.41404014      -0.21229506      -0.30735254      -1.64069499      -0.43111594       1.03211558
 C             44.36672325      38.92485477      54.36104302       0.21229506       0.30735254       1.64069499      -0.43111594       1.03211558
