      60
 Properties=species:S:1:pos:R:3:forces:R:3:local_energy:R:1 Lattice="200.0000000000      0.0000000000    0.0000000000    0.0000000000  200.0000000000    0.0000000000    0.0000000000    0.0000000000  200.0000000000" energy=-521.677455 virial="1.87604668           -0.29654412      0.02523265     -0.29654412      1.65077359      0.08621061      0.02523265      0.08621061      1.62106281" stress="-0.00000023           0.00000004     -0.00000000      0.00000004     -0.00000021     -0.00000001     -0.00000000     -0.00000001     -0.00000020" volume=8000000.000000
 C              7.28766000       6.32384000      11.08071000       0.10436466      -0.25250498      -0.11643903      -8.69539782
 C              8.17010000       7.19820000      11.83431000       0.26813654      -0.06861776       0.02228655      -8.69651957
 C              7.82312000       5.40379000      10.17174000      -0.09986426       0.11213109       0.23124514      -8.69418232
 C              9.55575000       7.11947000      11.65181000      -0.26165360      -0.01638377       0.08895921      -8.69138595
 C             10.34747000       8.33446000      11.57854000      -0.05453494       0.28140192       0.10059457      -8.69541649
 C              7.52513000       8.49407000      11.94969000       0.12990768       0.24372017       0.07165680      -8.69171349
 C              8.28815000       9.66528000      11.88021000      -0.16225068      -0.20868975       0.09464338      -8.69368895
 C              9.72519000       9.58294000      11.69074000       0.16692193      -0.18425778       0.04109980      -8.69154586
 C              6.04281000       5.93248000       8.54449000       0.16675711      -0.21300819       0.06197246      -8.69286291
 C              5.48781000       6.88671000       9.48799000       0.04426396       0.01222556       0.25345451      -8.69601905
 C              7.19130000       5.20716000       8.87936000      -0.27861460       0.01900377      -0.03284880      -8.69231285
 C              6.09683000       7.07853000      10.73395000      -0.17295103      -0.04914194      -0.24835241      -8.69498178
 C              6.24545000       8.42128000      11.26831000      -0.17680658       0.23174223      -0.07469550      -8.69589649
 C              5.00000000       8.02796000       8.73412000      -0.07241744       0.26529110       0.10526637      -8.69341091
 C              5.14341000       9.32046000       9.25092000      -0.12927647      -0.21593850      -0.04471332      -8.69150386
 C              5.77472000       9.52231000      10.54328000       0.03952183      -0.21673589       0.19828563      -8.69527918
 C              8.09699000       5.52910000       6.60450000      -0.00189300      -0.16324629       0.27822513      -8.69287288
 C              6.90696000       6.28678000       6.25862000      -0.27710769       0.00914747       0.12043176      -8.69783423
 C              8.23661000       5.00000000       7.89356000      -0.04984631       0.02459352      -0.29479888      -8.69417625
 C              5.89729000       6.48231000       7.20819000       0.14512930      -0.05021654      -0.21943807      -8.69587910
 C              5.25014000       7.77861000       7.32528000       0.05435965       0.21559014      -0.21124461      -8.69756653
 C              7.30750000       7.38081000       5.39018000      -0.16596479       0.18421807      -0.04172659      -8.69150208
 C              6.68539000       8.62933000       5.50232000       0.05338113      -0.28077466      -0.10106601      -8.69548694
 C              5.63711000       8.83263000       6.48814000      -0.10615818      -0.23620262       0.10639002      -8.69556469
 C             10.61144000       5.67417000       7.94558000      -0.20660266      -0.19919772       0.11478233      -8.69589191
 C             10.46803000       6.22407000       6.60851000      -0.24728550      -0.03547708      -0.17446793      -8.69563422
 C              9.51581000       5.07072000       8.57587000       0.31742061       0.07415920      -0.14182867      -8.69581094
 C              9.23212000       6.15584000       5.95340000       0.34049421      -0.03696072       0.05438130      -8.69636885
 C              8.74452000       7.29848000       5.20075000       0.16457002       0.21151335      -0.09527753      -8.69370842
 C             11.25804000       7.44140000       6.53754000      -0.03839029       0.21608853      -0.19752837      -8.69535009
 C             10.78743000       8.54244000       5.81255000       0.17637102      -0.22998451       0.07404935      -8.69586481
 C              9.50772000       8.46964000       5.13124000      -0.13202415      -0.24339271      -0.07148258      -8.69178065
 C             10.11096000       6.16490000      10.70855000      -0.13711438      -0.25000471      -0.09406477      -8.69726277
 C             11.24922000       6.78972000      10.05652000       0.08868583      -0.11083770      -0.28207378      -8.69295842
 C              9.26140000       5.31910000       9.98455000       0.21320343       0.16091800       0.18532387      -8.69643854
 C             11.49086000       6.55105000       8.69835000       0.03036027      -0.02562154       0.31845127      -8.69209662
 C             11.88928000       7.64325000       7.82994000       0.12986249       0.21796787       0.04432042      -8.69152936
 C             11.39574000       8.13108000      10.59273000       0.10658890       0.23641110      -0.10550881      -8.69564820
 C             11.78269000       9.18516000       9.75574000      -0.05398778      -0.21419211       0.20979496      -8.69758932
 C             12.03279000       8.93571000       8.34690000       0.07160176      -0.26460788      -0.10668296      -8.69341627
 C              9.74533000      10.63990000       6.00027000      -0.10466404       0.25108136       0.11507412      -8.69543946
 C             10.93620000       9.88519000       6.34702000       0.16859426       0.04837765       0.24565045      -8.69502806
 C             11.54502000      10.07699000       7.59304000      -0.04376157      -0.01152380      -0.25113352      -8.69603933
 C              9.20974000      11.55982000       6.90925000       0.09918478      -0.11072689      -0.23077963      -8.69408030
 C              6.92189000      10.79886000       6.37217000       0.13680356       0.25054822       0.09491402      -8.69721874
 C              7.47719000       9.84434000       5.42897000       0.25944198       0.01397203      -0.08815380      -8.69137601
 C              8.86285000       9.76560000       5.24659000      -0.26731631       0.06730276      -0.02214048      -8.69654044
 C              7.77145000      11.64456000       7.09627000      -0.21424055      -0.16045540      -0.18585933      -8.69649252
 C              6.42112000      11.28960000       9.13514000       0.20613162       0.19778807      -0.11336838      -8.69583004
 C              5.54173000      10.41268000       8.38235000      -0.02842240       0.02457106      -0.31752535      -8.69222798
 C              5.78360000      10.17405000       7.02416000      -0.09107537       0.11059169       0.28676268      -8.69306294
 C              7.51683000      11.89289000       8.50490000      -0.31619421      -0.07257909       0.14147741      -8.69572840
 C              8.93558000      11.43467000      10.47645000       0.00220610       0.16237376      -0.27724745      -8.69280089
 C              7.80046000      10.80795000      11.12755000      -0.34146144       0.03567446      -0.05589064      -8.69644846
 C              6.56458000      10.73974000      10.47227000       0.24917517       0.03416826       0.17610999      -8.69575709
 C              8.79593000      11.96360000       9.18735000       0.05122322      -0.02326801       0.29438310      -8.69414419
 C             10.98991000      11.03123000       8.53658000      -0.16622130       0.21233270      -0.06287869      -8.69286765
 C             11.13547000      10.48148000       9.87290000      -0.14633429       0.04920068       0.21805228      -8.69586555
 C             10.12566000      10.67705000      10.82237000       0.27927110      -0.01081936      -0.12123997      -8.69791778
 C              9.84135000      11.75643000       8.20170000       0.28050173      -0.01873795       0.03241696      -8.69223920
