       3
 Properties=species:S:1:pos:R:3:forces:R:3:local_energy:R:1:hirshfeld_v:R:1 Lattice="20.0000000000       0.0000000000    0.0000000000    0.0000000000   20.0000000000    0.0000000000    0.0000000000    0.0000000000   20.0000000000" energy=-2.546224 virial="-19.21514323          0.00000000      0.00000000      0.00000000      0.00000000      0.00000000      0.00000000      0.00000000      0.00000000" stress="0.00240189           -0.00000000     -0.00000000     -0.00000000     -0.00000000     -0.00000000     -0.00000000     -0.00000000     -0.00000000" volume=8000.000000
 C              0.00000000       0.00000000       0.00000000       3.58355851       0.02790012       0.02790012      -1.09827517       1.01613734
 C              2.70000000       0.00000000       0.00000000       0.05558407       0.05558407       0.05558407      -0.34967324       0.97497402
 C              5.40000000       0.00000000       0.00000000      -3.52775827       0.02790012       0.02790012      -1.09827517       1.01613734
