       5
 Properties=species:S:1:pos:R:3:forces:R:3:local_energy:R:1:hirshfeld_v:R:1 Lattice="21.2582360000       0.0000000000    0.0000000000    0.0000000000   21.2582360000    0.0000000000    0.0000000000    0.0000000000   21.2582360000" energy=-0.107508 virial="0.00338671            0.00045203      0.00045203      0.00045203      0.00338671      0.00045203      0.00045203      0.00045203      0.00338671" stress="-0.00000035          -0.00000005     -0.00000005     -0.00000005     -0.00000035     -0.00000005     -0.00000005     -0.00000005     -0.00000035" volume=9606.864656
 C             10.62912000      10.62912000      10.62912000      -0.00000496      -0.00000496      -0.00000496      -0.10637515       0.73600000
 H             11.35824000      11.35824000      11.35824000       0.00152456       0.00152456       0.00152456      -0.00032628       0.60300000
 H             10.00000000      10.00000000      11.25824000      -0.00128399      -0.00128399       0.00104838      -0.00026894       0.57900000
 H             11.25824000      10.00000000      10.00000000       0.00104838      -0.00128399      -0.00128399      -0.00026894       0.57900000
 H             10.00000000      11.25824000      10.00000000      -0.00128399       0.00104838      -0.00128399      -0.00026894       0.57900000
