       2
 Properties=species:S:1:pos:R:3:forces:R:3:local_energy:R:1:hirshfeld_v:R:1 Lattice="20.0000000000       0.0000000000    0.0000000000    0.0000000000   20.0000000000    0.0000000000    0.0000000000    0.0000000000   20.0000000000" energy=-0.213495 virial="0.00000000            0.00000000      0.00000000      0.00000000      0.00000000      0.00000000      0.00000000      0.00000000      0.00000000" stress="-0.00000000          -0.00000000     -0.00000000     -0.00000000     -0.00000000     -0.00000000     -0.00000000     -0.00000000     -0.00000000" volume=8000.000000
 C              0.00000000       0.00000000       0.00000000       0.00038446       0.00000000       0.00000000      -0.10674771       1.02733555
 C              5.75000000       0.00000000       0.00000000      -0.00038446       0.00000000       0.00000000      -0.10674771       1.02733555
