      60
 Properties=species:S:1:pos:R:3:forces:R:3:local_energy:R:1:hirshfeld_v:R:1 Lattice="200.0000000000      0.0000000000    0.0000000000    0.0000000000  200.0000000000    0.0000000000    0.0000000000    0.0000000000  200.0000000000" energy=-526.084644 virial="1.87604670           -0.29654412      0.02523267     -0.29654412      1.65077361      0.08621061      0.02523267      0.08621061      1.62106281" stress="-0.00000023           0.00000004     -0.00000000      0.00000004     -0.00000021     -0.00000001     -0.00000000     -0.00000001     -0.00000020" volume=8000000.000000
 C              7.28766000       6.32384000      11.08071000       0.08506579      -0.27834321      -0.07796210      -8.76884661       0.85398012
 C              8.17010000       7.19820000      11.83431000       0.25868260      -0.08672097       0.06904483      -8.76995375       0.85395875
 C              7.82312000       5.40379000      10.17174000      -0.10824006       0.06744539       0.24971587      -8.76764677       0.85401314
 C              9.55575000       7.11947000      11.65181000      -0.24253343      -0.03694038       0.13086436      -8.76483903       0.85399506
 C             10.34747000       8.33446000      11.57854000      -0.02737803       0.27479779       0.14034200      -8.76890326       0.85408954
 C              7.52513000       8.49407000      11.94969000       0.11291926       0.23959999       0.11880462      -8.76519071       0.85396964
 C              8.28815000       9.66528000      11.88021000      -0.16375534      -0.18823855       0.13987496      -8.76715711       0.85397520
 C              9.72519000       9.58294000      11.69074000       0.18095570      -0.16465564       0.08276738      -8.76505287       0.85408450
 C              6.04281000       5.93248000       8.54449000       0.12894834      -0.24553473       0.06017311      -8.76632855       0.85394107
 C              5.48781000       6.88671000       9.48799000      -0.00008399      -0.01185003       0.26261690      -8.76946925       0.85397162
 C              7.19130000       5.20716000       8.87936000      -0.29180390      -0.02675021      -0.02821106      -8.76583560       0.85407920
 C              6.09683000       7.07853000      10.73395000      -0.20521294      -0.06845121      -0.21276579      -8.76838525       0.85384843
 C              6.24545000       8.42128000      11.26831000      -0.20541798       0.22693284      -0.03474345      -8.76938521       0.85404744
 C              5.00000000       8.02796000       8.73412000      -0.11992647       0.25359698       0.10646924      -8.76688795       0.85401308
 C              5.14341000       9.32046000       9.25092000      -0.17303940      -0.20080601      -0.03381594      -8.76503045       0.85408342
 C              5.77472000       9.52231000      10.54328000       0.00128134      -0.19777558       0.22329426      -8.76874936       0.85401938
 C              8.09699000       5.52910000       6.60450000      -0.00693388      -0.20348228       0.24618706      -8.76627605       0.85381601
 C              6.90696000       6.28678000       6.25862000      -0.29541283      -0.02255192       0.08628276      -8.77129338       0.85407565
 C              8.23661000       5.00000000       7.89356000      -0.05195392      -0.02556477      -0.29988064      -8.76762985       0.85397476
 C              5.89729000       6.48231000       7.20819000       0.10462010      -0.07803545      -0.23464431      -8.76930660       0.85397937
 C              5.25014000       7.77861000       7.32528000       0.00652302       0.20150759      -0.22575960      -8.77095662       0.85397970
 C              7.30750000       7.38081000       5.39018000      -0.18005089       0.16459120      -0.08346681      -8.76500926       0.85407898
 C              6.68539000       8.62933000       5.50232000       0.02625362      -0.27409577      -0.14089086      -8.76897405       0.85409230
 C              5.63711000       8.83263000       6.48814000      -0.14609039      -0.22705094       0.07522214      -8.76898460       0.85402605
 C             10.61144000       5.67417000       7.94558000      -0.17413168      -0.23661516       0.10446619      -8.76932039       0.85404640
 C             10.46803000       6.22407000       6.60851000      -0.21627778      -0.06888976      -0.19823902      -8.76902645       0.85392756
 C              9.51581000       5.07072000       8.57587000       0.32717313       0.02388442      -0.13961818      -8.76923418       0.85400528
 C              9.23212000       6.15584000       5.95340000       0.34545926      -0.07038651       0.01661320      -8.76982564       0.85403410
 C              8.74452000       7.29848000       5.20075000       0.16603916       0.19110513      -0.14043604      -8.76717793       0.85397518
 C             11.25804000       7.44140000       6.53754000      -0.00006846       0.19712757      -0.22260329      -8.76881871       0.85401177
 C             10.78743000       8.54244000       5.81255000       0.20503390      -0.22515086       0.03401123      -8.76935246       0.85404610
 C              9.50772000       8.46964000       5.13124000      -0.11502908      -0.23932035      -0.11854887      -8.76525817       0.85397400
 C             10.11096000       6.16490000      10.70855000      -0.11217803      -0.27897190      -0.06201129      -8.77073178       0.85416549
 C             11.24922000       6.78972000      10.05652000       0.12648950      -0.13417928      -0.25577964      -8.76638398       0.85395653
 C              9.26140000       5.31910000       9.98455000       0.22059040       0.11340280       0.20293516      -8.76984728       0.85396393
 C             11.49086000       6.55105000       8.69835000       0.07170909      -0.05348207       0.31567384      -8.76559615       0.85409401
 C             11.88928000       7.64325000       7.82994000       0.17354373       0.20287520       0.03341496      -8.76505655       0.85407944
 C             11.39574000       8.13108000      10.59273000       0.14661071       0.22723953      -0.07428677      -8.76906695       0.85402301
 C             11.78269000       9.18516000       9.75574000      -0.00605061      -0.20005927       0.22437899      -8.77097781       0.85397913
 C             12.03279000       8.93571000       8.34690000       0.11905106      -0.25296842      -0.10782196      -8.76689309       0.85401390
 C              9.74533000      10.63990000       6.00027000      -0.08526988       0.27692424       0.07661923      -8.76888790       0.85398045
 C             10.93620000       9.88519000       6.34702000       0.20098648       0.06761938       0.21007134      -8.76842902       0.85384544
 C             11.54502000      10.07699000       7.59304000       0.00060578       0.01248400      -0.26026000      -8.76948965       0.85397820
 C              9.20974000      11.55982000       6.90925000       0.10759661      -0.06609072      -0.24922536      -8.76754630       0.85401128
 C              6.92189000      10.79886000       6.37217000       0.11185980       0.27955130       0.06276828      -8.77068639       0.85416025
 C              7.47719000       9.84434000       5.42897000       0.24039284       0.03456623      -0.13008190      -8.76482698       0.85399212
 C              8.86285000       9.76560000       5.24659000      -0.25780882       0.08543531      -0.06886283      -8.76997461       0.85396489
 C              7.77145000      11.64456000       7.09627000      -0.22158585      -0.11294268      -0.20353598      -8.76990136       0.85396044
 C              6.42112000      11.28960000       9.13514000       0.17355588       0.23522249      -0.10315410      -8.76925651       0.85404620
 C              5.54173000      10.41268000       8.38235000      -0.06986131       0.05242100      -0.31482060      -8.76572429       0.85409674
 C              5.78360000      10.17405000       7.02416000      -0.12883272       0.13398955       0.26042262      -8.76648786       0.85396315
 C              7.51683000      11.89289000       8.50490000      -0.32601926      -0.02235674       0.13915918      -8.76915242       0.85400301
 C              8.93558000      11.43467000      10.47645000       0.00716913       0.20264913      -0.24514236      -8.76620364       0.85381398
 C              7.80046000      10.80795000      11.12755000      -0.34647974       0.06909215      -0.01808382      -8.76990313       0.85403666
 C              6.56458000      10.73974000      10.47227000       0.21818086       0.06765333       0.19983662      -8.76914801       0.85393602
 C              8.79593000      11.96360000       9.18735000       0.05316332       0.02684989       0.29949440      -8.76759950       0.85397361
 C             10.98991000      11.03123000       8.53658000      -0.12842644       0.24484038      -0.06101277      -8.76633412       0.85394506
 C             11.13547000      10.48148000       9.87290000      -0.10580431       0.07698962       0.23334625      -8.76929125       0.85398101
 C             10.12566000      10.67705000      10.82237000       0.29755748       0.02090926      -0.08707759      -8.77137592       0.85408165
 C              9.84135000      11.75643000       8.20170000       0.29361652       0.02695615       0.02788394      -8.76576501       0.85408118
