      60
 Properties=species:S:1:pos:R:3:forces:R:3:local_energy:R:1:hirshfeld_v:R:1 Lattice="50.0000000000       0.0000000000    0.0000000000    0.0000000000   50.0000000000    0.0000000000    0.0000000000    0.0000000000   50.0000000000" energy=-525.948266 virial="1.87604665           -0.29654412      0.02523269     -0.29654412      1.65077358      0.08621060      0.02523269      0.08621060      1.62106285" stress="-0.00001501           0.00000237     -0.00000020      0.00000237     -0.00001321     -0.00000069     -0.00000020     -0.00000069     -0.00001297" volume=125000.000000
 C              7.28766000       6.32384000      11.08071000       0.13117676      -0.20430241      -0.17182784      -8.76656930       0.85398012
 C              8.17010000       7.19820000      11.83431000       0.27479110      -0.04026109      -0.05028535      -8.76768677       0.85395875
 C              7.82312000       5.40379000      10.17174000      -0.08426293       0.17937359       0.19469839      -8.76537389       0.85401314
 C              9.55575000       7.11947000      11.65181000      -0.28360358       0.01354824       0.02020787      -8.76256261       0.85399506
 C             10.34747000       8.33446000      11.57854000      -0.09449410       0.28388294       0.03345503      -8.76662010       0.85408954
 C              7.52513000       8.49407000      11.94969000       0.15121995       0.24264589      -0.00355782      -8.76290935       0.85396964
 C              8.28815000       9.66528000      11.88021000      -0.15675210      -0.23395703       0.02088769      -8.76488228       0.85397520
 C              9.72519000       9.58294000      11.69074000       0.13991977      -0.20772379      -0.02836202      -8.76277041       0.85408450
 C              6.04281000       5.93248000       8.54449000       0.22050072      -0.15630841       0.06169428      -8.76405584       0.85394107
 C              5.48781000       6.88671000       9.48799000       0.11067191       0.04729291       0.23167626      -8.76719822       0.85397162
 C              7.19130000       5.20716000       8.87936000      -0.24866065       0.09072249      -0.04010108      -8.76355459       0.85407920
 C              6.09683000       7.07853000      10.73395000      -0.11920696      -0.01802367      -0.29582037      -8.76611387       0.85384843
 C              6.24545000       8.42128000      11.26831000      -0.12630031       0.23234917      -0.13445791      -8.76710222       0.85404744
 C              5.00000000       8.02796000       8.73412000       0.00506003       0.27447913       0.10072842      -8.76460653       0.85401308
 C              5.14341000       9.32046000       9.25092000      -0.05470082      -0.23366086      -0.06009949      -8.76274996       0.85408342
 C              5.77472000       9.52231000      10.54328000       0.09965077      -0.23899944       0.15363005      -8.76646892       0.85401938
 C              8.09699000       5.52910000       6.60450000       0.00725423      -0.09791598       0.31998818      -8.76401131       0.85381601
 C              6.90696000       6.28678000       6.25862000      -0.24093110       0.05750287       0.17004288      -8.76902005       0.85407565
 C              8.23661000       5.00000000       7.89356000      -0.04358649       0.10096182      -0.27971274      -8.76536551       0.85397476
 C              5.89729000       6.48231000       7.20819000       0.20211945      -0.00596657      -0.18941901      -8.76703666       0.85397937
 C              5.25014000       7.77861000       7.32528000       0.12612365       0.23030965      -0.18392017      -8.76869275       0.85397970
 C              7.30750000       7.38081000       5.39018000      -0.13896146       0.20767648       0.02773413      -8.76272606       0.85407898
 C              6.68539000       8.62933000       5.50232000       0.09333590      -0.28325456      -0.03393023      -8.76669013       0.85409230
 C              5.63711000       8.83263000       6.48814000      -0.04237441      -0.24326961       0.15104018      -8.76671650       0.85402605
 C             10.61144000       5.67417000       7.94558000      -0.25202849      -0.13688744       0.12751575      -8.76706276       0.85404640
 C             10.46803000       6.22407000       6.60851000      -0.28945704       0.01430259      -0.13147407      -8.76676672       0.85392756
 C              9.51581000       5.07072000       8.57587000       0.29469022       0.14885774      -0.14222503      -8.76696832       0.85400528
 C              9.23212000       6.15584000       5.95340000       0.32389434       0.01436081       0.11097993      -8.76755062       0.85403410
 C              8.74452000       7.29848000       5.20075000       0.15907241       0.23678438      -0.02152203      -8.76490298       0.85397518
 C             11.25804000       7.44140000       6.53754000      -0.09851788       0.23834485      -0.15286803      -8.76653840       0.85401177
 C             10.78743000       8.54244000       5.81255000       0.12586701      -0.23058623       0.13380577      -8.76706926       0.85404610
 C              9.50772000       8.46964000       5.13124000      -0.15334264      -0.24232440       0.00373437      -8.76297763       0.85397400
 C             10.11096000       6.16490000      10.70855000      -0.17173608      -0.19828460      -0.14141199      -8.76846204       0.85416550
 C             11.24922000       6.78972000      10.05652000       0.02828379      -0.07342919      -0.31453420      -8.76411115       0.85395653
 C              9.26140000       5.31910000       9.98455000       0.19623215       0.22995661       0.15309924      -8.76758016       0.85396393
 C             11.49086000       6.55105000       8.69835000      -0.03509502       0.01681110       0.31403375      -8.76331461       0.85409401
 C             11.88928000       7.64325000       7.82994000       0.05528434       0.23569438       0.05970765      -8.76277633       0.85407944
 C             11.39574000       8.13108000      10.59273000       0.04280422       0.24346919      -0.15015389      -8.76679868       0.85402302
 C             11.78269000       9.18516000       9.75574000      -0.12574821      -0.22890557       0.18246775      -8.76871397       0.85397913
 C             12.03279000       8.93571000       8.34690000      -0.00587841      -0.27380070      -0.10214730      -8.76461243       0.85401390
 C              9.74533000      10.63990000       6.00027000      -0.13148015       0.20288258       0.17045967      -8.76661045       0.85398045
 C             10.93620000       9.88519000       6.34702000       0.11484524       0.01725971       0.29311250      -8.76615863       0.85384544
 C             11.54502000      10.07699000       7.59304000      -0.11017261      -0.04658494      -0.22935637      -8.76721885       0.85397820
 C              9.20974000      11.55982000       6.90925000       0.08357962      -0.17796914      -0.19422993      -8.76527289       0.85401128
 C              6.92189000      10.79886000       6.37217000       0.17142057       0.19883039       0.14226434      -8.76841664       0.85416025
 C              7.47719000       9.84434000       5.42897000       0.28138653      -0.01596565      -0.01940124      -8.76255166       0.85399212
 C              8.86285000       9.76560000       5.24659000      -0.27397589       0.03894676       0.05043081      -8.76770791       0.85396489
 C              7.77145000      11.64456000       7.09627000      -0.19726629      -0.22949443      -0.15362911      -8.76763406       0.85396044
 C              6.42112000      11.28960000       9.13514000       0.25156101       0.13548151      -0.12609448      -8.76699934       0.85404620
 C              5.54173000      10.41268000       8.38235000       0.03703067      -0.01786427      -0.31310290      -8.76344414       0.85409674
 C              5.78360000      10.17405000       7.02416000      -0.03067443       0.07318473       0.31922735      -8.76421531       0.85396315
 C              7.51683000      11.89289000       8.50490000      -0.29345415      -0.14727941       0.14187660      -8.76688652       0.85400301
 C              8.93558000      11.43467000      10.47645000      -0.00693287       0.09704625      -0.31901215      -8.76393851       0.85381398
 C              7.80046000      10.80795000      11.12755000      -0.32485817      -0.01564838      -0.11248593      -8.76762883       0.85403666
 C              6.56458000      10.73974000      10.47227000       0.29135127      -0.01561157       0.13311924      -8.76688900       0.85393602
 C              8.79593000      11.96360000       9.18735000       0.04497012      -0.09963954       0.27929206      -8.76533457       0.85397361
 C             10.98991000      11.03123000       8.53658000      -0.21996600       0.15563589      -0.06260925      -8.76406101       0.85394506
 C             11.13547000      10.48148000       9.87290000      -0.20332073       0.00495017       0.18803101      -8.76702201       0.85398101
 C             10.12566000      10.67705000      10.82237000       0.24309730      -0.05917229      -0.17085742      -8.76910312       0.85408165
 C              9.84135000      11.75643000       8.20170000       0.25054758      -0.09045838       0.03966582      -8.76348278       0.85408118
