    1000
 Properties=species:S:1:pos:R:3:forces:R:3:local_energy:R:1:hirshfeld_v:R:1 Lattice="18.2151240000       0.0000000000    0.0000000000    0.0000000000   18.2151240000    0.0000000000    0.0000000000    0.0000000000   18.2151240000" energy=-7759.866340 virial="1505.57740131       142.70039130     20.67395909    142.70039130   1631.84840669   -240.75485868     20.67395909   -240.75485868   1486.92666832" stress="-0.24911891          -0.02361178     -0.00342080     -0.02361178     -0.27001222      0.03983627     -0.00342080      0.03983627     -0.24603288" volume=6043.609514
 C              8.35934846       3.10682619       2.98379214      -5.53850193       0.23355598      -1.80064504      -7.98930876       0.91770678
 C              5.91582600       0.89333343       3.67235115      -3.37628473       4.20881059      -7.09741853      -7.94325834       0.92138203
 C              5.96669174       4.33999920       0.28897383       5.81591289       3.31653778       4.30542480      -8.51694201       0.91693579
 C              6.75613521       8.63649157       1.53293019       1.16107877      -3.20219642       4.47746853      -8.68461950       0.91447894
 C              5.84463219       6.01508932       0.81335993      -5.37067123      -4.16850566       1.81699543      -6.68029589       0.91954298
 C              8.63925116       0.96398990       5.59148751       2.33411244       2.37419697       4.82933332      -8.13806077       0.91705437
 C              5.34793308       6.63465855       2.07477548      -0.97119898       2.86357419       0.09541015      -7.98319508       0.91808636
 C              2.65213116       1.97904590       3.77758903       0.04626486       4.76260654      -0.17612166      -8.32571128       0.91008403
 C              6.41502969       0.50814731       4.91399418       2.51840678      -3.76391632      -0.90985730      -6.89486100       0.90956352
 C              4.18430542       0.13081191       0.53060656      -7.71101174      -2.37268384       5.21938916      -6.40779956       0.90775100
 C              1.20501242       7.52252745       7.85611923       0.44616853       9.12410122       3.65128001      -7.74873688       0.91359786
 C              2.38661841       0.00142989       4.84370202       6.03439497      -5.14760795      -0.79997943      -6.97903681       0.91719801
 C              6.86508898       6.60882950       0.31249867      10.79670729       4.96468824      -1.13323045      -7.03244299       0.92542595
 C              3.19257389       2.97317272       0.49341128      -2.70511438       0.72313686      -3.13996008      -6.27076656       0.91088222
 C              7.70704665       3.94912996       0.59706444      -4.30847171       1.40670339      -2.28227381      -7.56037353       0.91546613
 C              8.07495573       8.07008318       3.74463787      -0.58141172       2.18648432      -0.23340889      -7.30999267       0.91900842
 C              2.24602497       1.28535023       5.23178435      -0.80053752       6.05659275      -0.03852522      -8.18724019       0.91412362
 C              6.52342790       7.75507083       6.75200949       3.60305268       0.78396329      -1.50076021      -8.37604286       0.91749655
 C              2.11896537       8.02249617       5.81112547       1.20609233       1.86288424       4.10664056      -7.65165800       0.91375505
 C              3.30383187       7.51181695       3.36561757      -2.02299889      -0.57794393      -1.45404021      -6.69285517       0.91395174
 C              6.90350467       5.31816046       6.46059483       2.65131967       2.92132345      -0.59744739      -8.79646033       0.91459040
 C              6.04355045       5.39654014       3.94453975      -1.91598303      -0.39088169      -5.41452095      -8.25651597       0.91608046
 C              6.07887869       0.00795090       6.24465453      -1.33634126      -1.20702785      -1.71134504      -8.06194134       0.91519879
 C              3.89412939       4.19728370       0.85005430       5.05159150      -1.96761326       4.15417351      -8.04611284       0.91670630
 C              9.05672359       7.43020409       8.49744642      -9.50947584       0.24358949      -0.37677023      -8.03570874       0.91632139
 C              5.19159267       3.42395150       1.18924723      -2.54623992       1.59706492      -7.11780014      -7.91379899       0.91489599
 C              7.26396376       2.29495990       7.54791022      -5.83160436       1.56651442      -3.20716548      -8.18773609       0.90784990
 C              8.91894439       8.75143811       6.25655811      -5.47723201       0.59484172      -0.56339822      -8.56346084       0.90824935
 C              0.16529314       0.80755841       2.42479731       2.83546920      -4.02826355       8.15826639      -6.61297109       0.91635446
 C              6.94731205       0.76128289       2.30708207       0.48523603      -0.31547437       6.31932900      -8.62626937       0.91818049
 C              1.77676695       5.63142417       8.32613318       4.65614201       0.21291579      -1.24944895      -7.20559960       0.90725357
 C              3.86072285       8.54635403       4.19283921      -0.58625889      -0.04964080      -2.51187608      -8.72522043       0.90733816
 C              3.51536410       8.04354375       6.39073072      -1.98330637      -3.15091362       1.96207602      -7.59376891       0.91708477
 C              5.47101268       7.02361520       7.62841196       3.23418365       1.88851279       1.22161745      -8.67329979       0.91610341
 C              8.41016865       2.14938463       6.70108000       1.45436607      -1.05908847       1.13873980      -7.25797428       0.91369369
 C              6.27904468       6.66750953       4.54184099       2.33257380       4.47214266       2.49501683      -8.09310548       0.91747453
 C              0.25349988       5.27834220       6.12123796       3.55583121      -2.84840359       9.26551798      -6.99894121       0.92445145
 C              1.33707207       8.72950710       2.37445070      -2.41148050       2.72053559      -2.65761281      -7.04976193       0.90813773
 C              5.09368638       0.88935343       7.48541413       2.76383152      -0.79012831       5.43787199      -7.14077583       0.91065999
 C              8.97522002       3.01991273       5.77250030       7.33961498       2.54269564      -1.77668760      -7.87117326       0.92008991
 C              7.63624447       7.49841973       1.27248124      -0.72483309      -0.88573550       3.61367677      -8.08453505       0.92818553
 C              7.67297526       1.27919351       4.60898193      -0.74499388      -2.67499928      -3.82492425      -8.92656767       0.91388083
 C              6.32874465       8.78495394       0.18031151      -6.52795338       1.46409188       3.39931772      -8.37017192       0.91587786
 C              1.51064399       4.52405392       8.80993598      -0.12309457      -5.10303339       3.42371764      -6.62146790       0.91602531
 C              4.98173623       0.02755948       3.08614292      -5.73139528       0.00560239       0.28454639      -8.22820135       0.91515887
 C              2.11620578       7.64741945       0.08454550      -1.56303194       4.57669915      -3.17715927      -8.14420151       0.90608786
 C              0.49068812       2.22403021       2.50783095      -6.25030398       6.09311130       4.50182740      -8.56073526       0.91752481
 C              8.04015573       0.56145387       3.27396817       3.20156100      -3.11599893      -1.80451115      -8.78804891       0.91427825
 C              1.57107266       7.65272005       3.24220100       3.18751640       3.23589390       1.67504927      -8.52896290       0.90789386
 C              3.12226351       1.75595617       2.36408630      -0.25134065      -1.82177954       4.44837375      -7.41908466       0.90960027
 C              5.96609064       2.49327707       3.59044684      -8.39307857      -0.95134644      -1.02885214      -8.48439000       0.91211446
 C              1.11819914       3.20565235       1.64755797       4.40781720      -1.23978932      -2.14583713      -8.41627746       0.91623020
 C              1.09592204       5.43527460       2.13277244       0.63919838       0.54201227       1.39386880      -7.77796895       0.90600489
 C              7.21359894       6.68913088       5.68393837      -4.77316513      -3.47087850       3.82469848      -8.28434264       0.91437309
 C              3.16535139       4.56323465       3.26716482      -1.59686946      -2.06711079      -0.52548507      -7.09384779       0.92426688
 C              7.25825332       2.54969841       3.93933022      13.06665769       0.16041440       5.01003620      -6.92234347       0.92091154
 C              6.66485012       4.13365827       5.62837313      -1.29305370       1.08497439       6.15938301      -8.00893830       0.91294311
 C              5.88403151       5.61381925       7.50442161       2.22467824       7.14993459      -5.36555513      -7.16907776       0.91331743
 C              1.02999240       6.29921793       7.43802749       0.82636164      -4.66277142      -5.90932743      -6.46442207       0.91777022
 C              3.79428319       3.70562107       6.11882445      -8.43640971       5.09535484       0.80155198      -6.32204326       0.91304506
 C              5.92161841       8.03262378       2.53539954      -1.98322925      -0.61195191       2.88626475      -8.44012189       0.91889163
 C              2.67925348       3.67378104       8.37871114      -1.26342750      -1.25556773      -2.96639335      -8.91855864       0.91590165
 C              5.85097106       7.47756341       9.01444629      -3.10260878      -1.61473581      -5.79479754      -8.07384597       0.91876870
 C              5.92308473       3.46386995       2.31613498       4.48995501       1.52983306       9.08194345      -7.03288447       0.91835521
 C              8.50695472       6.72995097       5.20322303       3.59391588       2.96275534      -0.30776118      -7.91973438       0.91264899
 C              4.01168069       0.75493492       2.35258345       2.11750152      -1.93912884      -9.28341278      -6.37890904       0.90816303
 C              1.64661078       0.95836143       7.34550376       1.78500835       3.19515384       1.49910068      -7.65666760       0.90584223
 C              4.84733594       2.96443857       6.12668428       3.76377938     -13.55310207       3.14135492      -7.16608274       0.91630374
 C              3.44345079       8.21163291       8.86840653       1.95698488       3.16647116       3.35698347      -6.51575626       0.91738647
 C              8.23754392       5.16237562       7.16385344      -0.13251881       0.78852440      -0.25022218      -6.70892625       0.91620764
 C              2.42198307       3.36186525       6.77456892       3.03357335       2.41607329      -0.78338204      -8.26363692       0.90854113
 C              0.11127619       5.58427432       4.77957568       2.96688827       2.20827671      -1.95413537      -7.27256103       0.91581915
 C              9.06275279       0.76437946       1.17830905       1.49239573       1.87924896      -8.10905615      -6.41811875       0.92068389
 C              9.10299911       7.68381326       0.87990889      -2.76216405      -3.42843493      -3.26958006      -8.08192745       0.91253125
 C              5.54187862       4.52294280       8.06053846      -6.21176038      -8.01627145       1.30396730      -6.95660931       0.91120540
 C              3.68438224       3.22897682       3.84146036      -1.59863402      -2.73310958       0.64041020      -7.56287015       0.90552194
 C              8.23352749       6.23672184       8.39420310      -1.50771521      -3.23853957      -1.67437719      -7.50796369       0.92451079
 C              3.61444527       5.24812331       2.01487505       3.87753597      -0.85738585       4.20808939      -7.06824843       0.92592906
 C              4.21163722       1.60290359       6.78384042      -3.33946646       3.98515544      -1.80167071      -7.77943742       0.89853181
 C              4.17011584       4.81494945       5.37243243      -1.87338210       8.49896751       3.15641322      -8.52122247       0.91659093
 C              7.32645985       3.37193822       1.91190495       2.38971906      -1.64899896      -0.43419735      -8.39041392       0.91381689
 C              7.33047629       5.53033934       3.30542569      -0.77725242      -2.52113751      -0.60294041      -7.36357439       0.91370517
 C              7.73662801       6.47596839       2.42258417       5.96357167       1.34129302      -1.96008369      -7.13824710       0.91687302
 C              8.50159036       5.28158449       0.26305371       1.83240604      -4.03693727       7.83384560      -6.97896575       0.92297533
 C              0.79296810       1.66010819       5.18723926      -1.42755827       2.56473327      -5.05723794      -7.96903869       0.91886322
 C              7.93647525       2.49460677       8.82323302       1.14870823       4.83129067      -1.50535518      -7.50417901       0.91708815
 C              6.50414719       1.02782480       7.46172536       2.00151320      -0.46527357      -0.08751080      -7.92002980       0.91635407
 C              5.18595509       0.84861530       0.01607485       0.13536295       0.76391736      -0.29477799      -7.93147729       0.91180069
 C              3.80803561       6.68118908       7.12702246       1.16219431       3.01199370       2.83961708      -7.80760679       0.91411437
 C              1.36233645       1.06407290       0.67845872      -0.15933341      -0.86879405      -1.90679286      -8.43188980       0.90869583
 C              4.35111953       6.14550050       6.03891471       2.27698577      -6.93845774      -3.65561026      -6.92271743       0.91334506
 C              1.25800022       8.35427555       0.99684088       1.74331106       1.25860274       3.28105054      -7.55399612       0.90911090
 C              2.71035581       1.97185093       6.49862800      -1.77683302      -8.80471323       3.74746034      -8.39698313       0.90935708
 C              1.21259902       4.02725463       6.07770381      -3.14032212      -1.05122323       1.98625530      -6.99603435       0.91823402
 C              3.38299480       5.90325757       8.35329193      -2.45255604       1.68081966      -1.10379107      -9.42766091       0.90758344
 C              1.11688765       1.58986156       8.54461449      -0.13700846       0.71858999      -7.55697755      -6.66262001       0.90742026
 C              1.22007633       2.27733677       3.65607594       2.10249430      -1.55785887       5.87896095      -5.87257648       0.91371878
 C              0.41518643       3.90892007       0.46747294       5.17157505      -3.04356557      -5.01692826      -7.81833614       0.92589322
 C              1.28602418       8.25778093       4.62422799       1.70895646      -2.66795933      -5.21010954      -8.16489420       0.91238474
 C              7.94399809       3.51703989       4.79573249      -2.92765546       4.32461157       3.61065927      -8.17412256       0.91353868
 C              5.21852374       6.94733937       5.36344326      -3.19801049      -2.57514756      -0.31176307      -6.81970210       0.91660075
 C              6.65334727       8.00104786       4.01803777       2.37117347      -0.60129942      -4.20230653      -8.14136682       0.92282264
 C              2.11505823       4.30851436       2.13534077      -7.47252818       4.87306578       1.99667604      -7.85035460       0.92277129
 C              0.22900054       2.87700598       8.24908321      -0.92674312      -4.81086528       2.74930396      -7.79117299       0.92137732
 C              9.06153238       8.06204121       4.97881270      -4.94898097      -3.21112042       1.87960961      -8.19019138       0.91012033
 C              1.69379706       5.65246263       4.36359689      -4.05246905       1.27555167       0.10229805      -7.44375993       0.91232518
 C              8.34960337       4.78894736       4.01775544      -0.06408967      -4.92224135      -2.32875660      -8.09781946       0.90846008
 C              9.07461995       6.02763954       1.54838572      -3.45050972       0.18738280      -3.89387263      -8.00648699       0.91625455
 C              5.48737897       2.02758921       0.81266776       2.01257595       0.16427561      -0.09905411      -7.46515174       0.90984105
 C              5.47575772       4.38452607       4.81812799       0.99983501      -1.78853116      -1.98964682      -9.07367827       0.91739957
 C              7.98399851       1.25607852       0.49578835      -2.74495345       3.05744117      -5.39076747      -8.59386601       0.91178474
 C              1.28534112       6.33036580       3.15444053       1.80147142      -3.48199164       2.21269321      -7.33216715       0.91089312
 C              3.76680568       6.90565406       1.96595833      -1.84850128      -2.89488589      -1.65236548      -7.75911055       0.91595627
 C              6.01254831       3.39779459       7.04350612       2.96760791      -2.80661939      -4.86772876      -8.88466949       0.90227168
 C              4.90995953       2.91576776       4.61083077       2.56274871       4.32125420      -3.72799009      -8.95176192       0.90776685
 C              4.69083159       8.17017529       5.44941865      -5.99462799       5.93367825       2.16962269      -7.80900262       0.91846891
 C              5.01027022       5.59038549       2.96976649      -2.01538313      -0.27394985      -3.32644174      -6.24268598       0.92364771
 C              3.28068955       6.88050808       0.37709860       2.56431200       1.67003710       0.84464967      -6.97114659       0.91562991
 C              2.29620764       2.19486780       1.29786402      -1.34482148      -0.82047028      -1.76287539      -8.93589949       0.91096723
 C              7.86404281       8.19661454       7.50795535       4.44259032       2.84110802       1.23942688      -8.11409536       0.91320667
 C              7.28883651       0.24392783       8.44931296       4.14167827       0.81860611      -1.64473770      -8.39489643       0.90928889
 C              3.00047719       5.42967345       4.57430944       0.65547927      -2.30251809      -3.42738469      -7.18984640       0.91017342
 C              6.93939758       1.91383576       1.38696329      -2.28241633      -3.93772454       0.15660996      -8.61578567       0.92330366
 C              1.09663243       8.80526380       6.89768494       6.89791318      -4.84558549       2.32653658      -9.20661846       0.90622559
 C              3.90606030       4.57209631       8.50600753       2.24645011       2.34122251      -0.36502223      -8.73318641       0.90958477
 C              8.35934846       3.10682619      12.09135414      -5.53850194       0.23355598      -1.80064506      -7.98930876       0.91770678
 C              5.91582600       0.89333343      12.77991315      -3.37628473       4.20881060      -7.09741853      -7.94325834       0.92138203
 C              5.96669174       4.33999920       9.39653583       5.81591288       3.31653777       4.30542480      -8.51694200       0.91693579
 C              6.75613521       8.63649157      10.64049219       1.16107877      -3.20219641       4.47746852      -8.68461950       0.91447894
 C              5.84463219       6.01508932       9.92092193      -5.37067124      -4.16850565       1.81699542      -6.68029590       0.91954298
 C              8.63925116       0.96398990      14.69904951       2.33411244       2.37419698       4.82933332      -8.13806077       0.91705437
 C              5.34793308       6.63465855      11.18233748      -0.97119898       2.86357419       0.09541015      -7.98319508       0.91808636
 C              2.65213116       1.97904590      12.88515103       0.04626486       4.76260653      -0.17612166      -8.32571128       0.91008403
 C              6.41502969       0.50814731      14.02155618       2.51840677      -3.76391631      -0.90985730      -6.89486100       0.90956352
 C              4.18430542       0.13081191       9.63816856      -7.71101174      -2.37268385       5.21938914      -6.40779955       0.90775100
 C              1.20501242       7.52252745      16.96368123       0.44616853       9.12410121       3.65128002      -7.74873688       0.91359786
 C              2.38661841       0.00142989      13.95126402       6.03439497      -5.14760796      -0.79997943      -6.97903680       0.91719801
 C              6.86508898       6.60882950       9.42006067      10.79670729       4.96468825      -1.13323045      -7.03244300       0.92542595
 C              3.19257389       2.97317272       9.60097328      -2.70511438       0.72313687      -3.13996008      -6.27076656       0.91088222
 C              7.70704665       3.94912996       9.70462644      -4.30847170       1.40670340      -2.28227381      -7.56037353       0.91546613
 C              8.07495573       8.07008318      12.85219987      -0.58141171       2.18648432      -0.23340889      -7.30999267       0.91900842
 C              2.24602497       1.28535023      14.33934635      -0.80053752       6.05659275      -0.03852522      -8.18724019       0.91412362
 C              6.52342790       7.75507083      15.85957149       3.60305268       0.78396329      -1.50076020      -8.37604287       0.91749655
 C              2.11896537       8.02249617      14.91868747       1.20609234       1.86288424       4.10664056      -7.65165800       0.91375505
 C              3.30383187       7.51181695      12.47317957      -2.02299889      -0.57794393      -1.45404021      -6.69285517       0.91395174
 C              6.90350467       5.31816046      15.56815683       2.65131967       2.92132345      -0.59744739      -8.79646033       0.91459040
 C              6.04355045       5.39654014      13.05210175      -1.91598303      -0.39088169      -5.41452095      -8.25651597       0.91608046
 C              6.07887869       0.00795090      15.35221653      -1.33634125      -1.20702784      -1.71134504      -8.06194134       0.91519879
 C              3.89412939       4.19728370       9.95761630       5.05159149      -1.96761325       4.15417351      -8.04611284       0.91670630
 C              9.05672359       7.43020409      17.60500842      -9.50947585       0.24358950      -0.37677022      -8.03570873       0.91632139
 C              5.19159267       3.42395150      10.29680923      -2.54623993       1.59706493      -7.11780013      -7.91379899       0.91489599
 C              7.26396376       2.29495990      16.65547222      -5.83160436       1.56651442      -3.20716548      -8.18773609       0.90784990
 C              8.91894439       8.75143811      15.36412011      -5.47723201       0.59484171      -0.56339821      -8.56346084       0.90824935
 C              0.16529314       0.80755841      11.53235931       2.83546919      -4.02826355       8.15826639      -6.61297109       0.91635446
 C              6.94731205       0.76128289      11.41464407       0.48523603      -0.31547437       6.31932900      -8.62626937       0.91818049
 C              1.77676695       5.63142417      17.43369518       4.65614200       0.21291580      -1.24944897      -7.20559959       0.90725357
 C              3.86072285       8.54635403      13.30040121      -0.58625889      -0.04964079      -2.51187609      -8.72522043       0.90733816
 C              3.51536410       8.04354375      15.49829272      -1.98330637      -3.15091363       1.96207603      -7.59376891       0.91708477
 C              5.47101268       7.02361520      16.73597396       3.23418365       1.88851280       1.22161746      -8.67329979       0.91610341
 C              8.41016865       2.14938463      15.80864200       1.45436607      -1.05908846       1.13873979      -7.25797427       0.91369369
 C              6.27904468       6.66750953      13.64940299       2.33257381       4.47214266       2.49501682      -8.09310548       0.91747453
 C              0.25349988       5.27834220      15.22879996       3.55583121      -2.84840359       9.26551799      -6.99894121       0.92445145
 C              1.33707207       8.72950710      11.48201270      -2.41148050       2.72053559      -2.65761281      -7.04976193       0.90813773
 C              5.09368638       0.88935343      16.59297613       2.76383152      -0.79012831       5.43787200      -7.14077583       0.91065999
 C              8.97522002       3.01991273      14.88006230       7.33961499       2.54269565      -1.77668761      -7.87117326       0.92008991
 C              7.63624447       7.49841973      10.38004324      -0.72483310      -0.88573550       3.61367676      -8.08453505       0.92818553
 C              7.67297526       1.27919351      13.71654393      -0.74499389      -2.67499929      -3.82492426      -8.92656766       0.91388083
 C              6.32874465       8.78495394       9.28787351      -6.52795338       1.46409189       3.39931773      -8.37017192       0.91587786
 C              1.51064399       4.52405392      17.91749798      -0.12309457      -5.10303339       3.42371764      -6.62146790       0.91602531
 C              4.98173623       0.02755948      12.19370492      -5.73139528       0.00560239       0.28454639      -8.22820135       0.91515887
 C              2.11620578       7.64741945       9.19210750      -1.56303194       4.57669915      -3.17715928      -8.14420151       0.90608786
 C              0.49068812       2.22403021      11.61539295      -6.25030398       6.09311130       4.50182740      -8.56073526       0.91752481
 C              8.04015573       0.56145387      12.38153017       3.20156100      -3.11599893      -1.80451114      -8.78804892       0.91427825
 C              1.57107266       7.65272005      12.34976300       3.18751641       3.23589389       1.67504926      -8.52896290       0.90789386
 C              3.12226351       1.75595617      11.47164830      -0.25134066      -1.82177954       4.44837374      -7.41908466       0.90960027
 C              5.96609064       2.49327707      12.69800884      -8.39307858      -0.95134644      -1.02885214      -8.48439000       0.91211446
 C              1.11819914       3.20565235      10.75511997       4.40781719      -1.23978931      -2.14583713      -8.41627746       0.91623020
 C              1.09592204       5.43527460      11.24033444       0.63919838       0.54201227       1.39386879      -7.77796895       0.90600489
 C              7.21359894       6.68913088      14.79150037      -4.77316513      -3.47087850       3.82469848      -8.28434264       0.91437309
 C              3.16535139       4.56323465      12.37472682      -1.59686946      -2.06711079      -0.52548506      -7.09384779       0.92426688
 C              7.25825332       2.54969841      13.04689222      13.06665770       0.16041439       5.01003619      -6.92234348       0.92091154
 C              6.66485012       4.13365827      14.73593513      -1.29305371       1.08497438       6.15938301      -8.00893830       0.91294311
 C              5.88403151       5.61381925      16.61198361       2.22467824       7.14993460      -5.36555513      -7.16907775       0.91331743
 C              1.02999240       6.29921793      16.54558949       0.82636166      -4.66277143      -5.90932742      -6.46442207       0.91777022
 C              3.79428319       3.70562107      15.22638645      -8.43640971       5.09535483       0.80155198      -6.32204326       0.91304506
 C              5.92161841       8.03262378      11.64296154      -1.98322925      -0.61195190       2.88626473      -8.44012189       0.91889163
 C              2.67925348       3.67378104      17.48627314      -1.26342750      -1.25556773      -2.96639333      -8.91855865       0.91590165
 C              5.85097106       7.47756341      18.12200829      -3.10260878      -1.61473579      -5.79479753      -8.07384597       0.91876870
 C              5.92308473       3.46386995      11.42369698       4.48995501       1.52983306       9.08194345      -7.03288447       0.91835521
 C              8.50695472       6.72995097      14.31078503       3.59391588       2.96275534      -0.30776117      -7.91973438       0.91264899
 C              4.01168069       0.75493492      11.46014545       2.11750152      -1.93912883      -9.28341280      -6.37890903       0.90816303
 C              1.64661078       0.95836143      16.45306576       1.78500834       3.19515385       1.49910069      -7.65666760       0.90584223
 C              4.84733594       2.96443857      15.23424628       3.76377938     -13.55310207       3.14135493      -7.16608274       0.91630374
 C              3.44345079       8.21163291      17.97596853       1.95698488       3.16647116       3.35698347      -6.51575625       0.91738647
 C              8.23754392       5.16237562      16.27141544      -0.13251881       0.78852439      -0.25022218      -6.70892625       0.91620764
 C              2.42198307       3.36186525      15.88213092       3.03357335       2.41607330      -0.78338204      -8.26363692       0.90854113
 C              0.11127619       5.58427432      13.88713768       2.96688827       2.20827672      -1.95413537      -7.27256103       0.91581915
 C              9.06275279       0.76437946      10.28587105       1.49239572       1.87924897      -8.10905615      -6.41811875       0.92068389
 C              9.10299911       7.68381326       9.98747089      -2.76216406      -3.42843492      -3.26958005      -8.08192745       0.91253125
 C              5.54187862       4.52294280      17.16810046      -6.21176038      -8.01627145       1.30396730      -6.95660931       0.91120540
 C              3.68438224       3.22897682      12.94902236      -1.59863402      -2.73310957       0.64041019      -7.56287015       0.90552194