     216
 Properties=species:S:1:pos:R:3:velocities:R:3:forces:R:3:local_energy:R:1:fix_atoms:S:3 Lattice="16.2900000000       0.0000000000    0.0000000000    0.0000000000   16.2900000000    0.0000000000    0.0000000000    0.0000000000   16.2900000000" temperature=302.98599800 pressure=16321.03905985 time_step=0.1000 time=0.000000E+00 energy=-1000.211698 virial="38.42176994          -0.00000000     -0.00000000     -0.00000000     38.42176994      0.00000000     -0.00000000      0.00000000     38.42176993" stress="-0.00888821           0.00000000      0.00000000      0.00000000     -0.00888821     -0.00000000      0.00000000     -0.00000000     -0.00888821" volume=4322.781189 step=0
 Si             0.00000000       0.00000000       0.00000000       0.00015380       0.00318844      -0.00325736       0.00000000      -0.00000000       0.00000000      -4.63060971 F F F
 Si             1.35750000       1.35750000       1.35750000       0.00075587      -0.00182292       0.00403704      -0.00000000      -0.00000000      -0.00000000      -4.63060971 F F F
 Si             0.00000000       2.71500000       2.71500000      -0.00097238      -0.00350030      -0.00475710       0.00000000       0.00000000      -0.00000000      -4.63060971 F F F
 Si             1.35750000       4.07250000       4.07250000      -0.00445678       0.00177568      -0.00450033      -0.00000000      -0.00000000      -0.00000000      -4.63060971 F F F
 Si             2.71500000       0.00000000       2.71500000      -0.00306709       0.00295314      -0.00052657       0.00000000      -0.00000000      -0.00000000      -4.63060971 F F F
 Si             4.07250000       1.35750000       4.07250000      -0.00034395      -0.00301661       0.00312840       0.00000000      -0.00000000      -0.00000000      -4.63060971 F F F
 Si             2.71500000       2.71500000       0.00000000       0.00437863       0.00039089      -0.00026125       0.00000000       0.00000000      -0.00000000      -4.63060971 F F F
 Si             4.07250000       4.07250000       1.35750000      -0.00305442      -0.00198840       0.00118809       0.00000000       0.00000000       0.00000000      -4.63060971 F F F
 Si             0.00000000       0.00000000       5.43000000      -0.00098180      -0.00044553      -0.00108427       0.00000000      -0.00000000      -0.00000000      -4.63060971 F F F
 Si             1.35750000       1.35750000       6.78750000      -0.00459454       0.00276316      -0.00338808      -0.00000000       0.00000000       0.00000000      -4.63060971 F F F
 Si             0.00000000       2.71500000       8.14500000       0.00058501       0.00090270       0.00168124       0.00000000       0.00000000       0.00000000      -4.63060971 F F F
 Si             1.35750000       4.07250000       9.50250000      -0.00087562      -0.00451691       0.00384487      -0.00000000      -0.00000000      -0.00000000      -4.63060971 F F F
 Si             2.71500000       0.00000000       8.14500000      -0.00416754      -0.00253907      -0.00499331       0.00000000      -0.00000000      -0.00000000      -4.63060971 F F F
 Si             4.07250000       1.35750000       9.50250000      -0.00049060       0.00004783       0.00141234       0.00000000       0.00000000      -0.00000000      -4.63060971 F F F
 Si             2.71500000       2.71500000       5.43000000       0.00430926       0.00386282      -0.00128506       0.00000000       0.00000000       0.00000000      -4.63060971 F F F
 Si             4.07250000       4.07250000       6.78750000       0.00211157      -0.00016555      -0.00134664       0.00000000      -0.00000000       0.00000000      -4.63060971 F F F
 Si             0.00000000       0.00000000      10.86000000       0.00239077      -0.00317914      -0.00053286       0.00000000      -0.00000000      -0.00000000      -4.63060971 F F F
 Si             1.35750000       1.35750000      12.21750000      -0.00116790       0.00018747      -0.00131144      -0.00000000       0.00000000       0.00000000      -4.63060971 F F F
 Si             0.00000000       2.71500000      13.57500000      -0.00157931       0.00162335      -0.00145653       0.00000000       0.00000000       0.00000000      -4.63060971 F F F
 Si             1.35750000       4.07250000      14.93250000       0.00332742      -0.00324959       0.00106359      -0.00000000      -0.00000000      -0.00000000      -4.63060971 F F F
 Si             2.71500000       0.00000000      13.57500000       0.00032008       0.00412980       0.00196195       0.00000000      -0.00000000      -0.00000000      -4.63060971 F F F
 Si             4.07250000       1.35750000      14.93250000      -0.00029608      -0.00234928      -0.00397374       0.00000000       0.00000000      -0.00000000      -4.63060971 F F F
 Si             2.71500000       2.71500000      10.86000000      -0.00494074       0.00416273      -0.00297792       0.00000000       0.00000000       0.00000000      -4.63060971 F F F
 Si             4.07250000       4.07250000      12.21750000       0.00071479       0.00236720      -0.00454912       0.00000000      -0.00000000       0.00000000      -4.63060971 F F F
 Si             0.00000000       5.43000000       0.00000000      -0.00054158       0.00398745      -0.00522236      -0.00000000      -0.00000000       0.00000000      -4.63060971 F F F
 Si             1.35750000       6.78750000       1.35750000      -0.00289785      -0.00377334       0.00199705      -0.00000000       0.00000000       0.00000000      -4.63060971 F F F
 Si             0.00000000       8.14500000       2.71500000       0.00010006      -0.00524564       0.00091178      -0.00000000       0.00000000       0.00000000      -4.63060971 F F F
 Si             1.35750000       9.50250000       4.07250000       0.00232411      -0.00406750      -0.00376275      -0.00000000      -0.00000000      -0.00000000      -4.63060971 F F F
 Si             2.71500000       5.43000000       2.71500000       0.00156911       0.00331336       0.00053074       0.00000000      -0.00000000       0.00000000      -4.63060971 F F F
 Si             4.07250000       6.78750000       4.07250000      -0.00357423      -0.00437604      -0.00537181       0.00000000       0.00000000      -0.00000000      -4.63060971 F F F
 Si             2.71500000       8.14500000       0.00000000      -0.00171494       0.00115221      -0.00324795       0.00000000       0.00000000      -0.00000000      -4.63060971 F F F
 Si             4.07250000       9.50250000       1.35750000       0.00225864       0.00457577      -0.00520949       0.00000000      -0.00000000       0.00000000      -4.63060971 F F F
 Si             0.00000000       5.43000000       5.43000000       0.00296894      -0.00263247       0.00123393       0.00000000       0.00000000      -0.00000000      -4.63060971 F F F
 Si             1.35750000       6.78750000       6.78750000       0.00172362      -0.00242417       0.00414525      -0.00000000       0.00000000       0.00000000      -4.63060971 F F F
 Si             0.00000000       8.14500000       8.14500000      -0.00108929      -0.00432264       0.00257997       0.00000000      -0.00000000       0.00000000      -4.63060971 F F F
 Si             1.35750000       9.50250000       9.50250000      -0.00099569      -0.00270012       0.00260176      -0.00000000      -0.00000000      -0.00000000      -4.63060971 F F F
 Si             2.71500000       5.43000000       8.14500000       0.00217542      -0.00523184       0.00488499       0.00000000      -0.00000000       0.00000000      -4.63060971 F F F
 Si             4.07250000       6.78750000       9.50250000       0.00465584       0.00052865       0.00084388       0.00000000       0.00000000      -0.00000000      -4.63060971 F F F
 Si             2.71500000       8.14500000       5.43000000       0.00188561      -0.00319190       0.00124699       0.00000000       0.00000000      -0.00000000      -4.63060971 F F F
 Si             4.07250000       9.50250000       6.78750000      -0.00179923      -0.00157856      -0.00268724       0.00000000      -0.00000000       0.00000000      -4.63060971 F F F
 Si             0.00000000       5.43000000      10.86000000       0.00089061       0.00308775       0.00281033       0.00000000      -0.00000000      -0.00000000      -4.63060971 F F F
 Si             1.35750000       6.78750000      12.21750000      -0.00107466       0.00104612      -0.00376908      -0.00000000       0.00000000       0.00000000      -4.63060971 F F F
 Si             0.00000000       8.14500000      13.57500000       0.00170453      -0.00175979       0.00362305       0.00000000       0.00000000       0.00000000      -4.63060971 F F F
 Si             1.35750000       9.50250000      14.93250000       0.00446229      -0.00529283      -0.00027104      -0.00000000      -0.00000000      -0.00000000      -4.63060971 F F F
 Si             2.71500000       5.43000000      13.57500000       0.00134788       0.00434475      -0.00083286       0.00000000      -0.00000000       0.00000000      -4.63060971 F F F
 Si             4.07250000       6.78750000      14.93250000      -0.00489647      -0.00165698      -0.00229459       0.00000000       0.00000000      -0.00000000      -4.63060971 F F F
 Si             2.71500000       8.14500000      10.86000000       0.00264551      -0.00238379      -0.00032843       0.00000000       0.00000000      -0.00000000      -4.63060971 F F F
 Si             4.07250000       9.50250000      12.21750000      -0.00351836       0.00411767       0.00098269       0.00000000      -0.00000000       0.00000000      -4.63060971 F F F
 Si             0.00000000      10.86000000       0.00000000       0.00288084      -0.00077359       0.00221988       0.00000000      -0.00000000       0.00000000      -4.63060971 F F F
 Si             1.35750000      12.21750000       1.35750000       0.00242939      -0.00416706       0.00467877      -0.00000000       0.00000000       0.00000000      -4.63060971 F F F
 Si             0.00000000      13.57500000       2.71500000      -0.00179028      -0.00009108       0.00277243       0.00000000       0.00000000      -0.00000000      -4.63060971 F F F
 Si             1.35750000      14.93250000       4.07250000       0.00019264       0.00034156      -0.00268901      -0.00000000      -0.00000000      -0.00000000      -4.63060971 F F F
 Si             2.71500000      10.86000000       2.71500000       0.00209897      -0.00003892       0.00190977      -0.00000000      -0.00000000      -0.00000000      -4.63060971 F F F
 Si             4.07250000      12.21750000       4.07250000       0.00030968      -0.00310964       0.00073707       0.00000000       0.00000000      -0.00000000      -4.63060971 F F F
 Si             2.71500000      13.57500000       0.00000000       0.00357819      -0.00061562      -0.00464359       0.00000000       0.00000000       0.00000000      -4.63060971 F F F
 Si             4.07250000      14.93250000       1.35750000      -0.00470716      -0.00077605       0.00203269       0.00000000      -0.00000000       0.00000000      -4.63060971 F F F
 Si             0.00000000      10.86000000       5.43000000       0.00339807      -0.00424611       0.00106386       0.00000000      -0.00000000      -0.00000000      -4.63060971 F F F
 Si             1.35750000      12.21750000       6.78750000      -0.00508790       0.00272512      -0.00494656      -0.00000000       0.00000000       0.00000000      -4.63060971 F F F
 Si             0.00000000      13.57500000       8.14500000      -0.00270991      -0.00248166       0.00459650       0.00000000       0.00000000       0.00000000      -4.63060971 F F F
 Si             1.35750000      14.93250000       9.50250000       0.00218782       0.00456517      -0.00230587      -0.00000000      -0.00000000      -0.00000000      -4.63060971 F F F
 Si             2.71500000      10.86000000       8.14500000       0.00289157       0.00053922       0.00154683       0.00000000      -0.00000000      -0.00000000      -4.63060971 F F F
 Si             4.07250000      12.21750000       9.50250000       0.00465079       0.00236427       0.00205096       0.00000000       0.00000000      -0.00000000      -4.63060971 F F F
 Si             2.71500000      13.57500000       5.43000000       0.00347289      -0.00258697       0.00096371       0.00000000       0.00000000       0.00000000      -4.63060971 F F F
 Si             4.07250000      14.93250000       6.78750000      -0.00412972       0.00461930       0.00312630       0.00000000      -0.00000000       0.00000000      -4.63060971 F F F
 Si             0.00000000      10.86000000      10.86000000       0.00103251      -0.00365350      -0.00151515       0.00000000      -0.00000000      -0.00000000      -4.63060971 F F F
 Si             1.35750000      12.21750000      12.21750000      -0.00140472       0.00441895       0.00376149       0.00000000      -0.00000000      -0.00000000      -4.63060971 F F F
 Si             0.00000000      13.57500000      13.57500000      -0.00460541       0.00171614       0.00433377       0.00000000       0.00000000      -0.00000000      -4.63060971 F F F
 Si             1.35750000      14.93250000      14.93250000       0.00319260       0.00003865       0.00475202       0.00000000       0.00000000       0.00000000      -4.63060971 F F F
 Si             2.71500000      10.86000000      13.57500000       0.00218345       0.00191196      -0.00223364       0.00000000      -0.00000000       0.00000000      -4.63060971 F F F
 Si             4.07250000      12.21750000      14.93250000       0.00401698       0.00185125      -0.00271870       0.00000000       0.00000000      -0.00000000      -4.63060971 F F F
 Si             2.71500000      13.57500000      10.86000000      -0.00249043       0.00004164       0.00028064       0.00000000       0.00000000       0.00000000      -4.63060971 F F F
 Si             4.07250000      14.93250000      12.21750000       0.00527068      -0.00282298       0.00108237       0.00000000      -0.00000000       0.00000000      -4.63060971 F F F
 Si             5.43000000       0.00000000       0.00000000      -0.00397887      -0.00421880      -0.00435689      -0.00000000       0.00000000       0.00000000      -4.63060971 F F F
 Si             6.78750000       1.35750000       1.35750000       0.00226572       0.00506744       0.00473933      -0.00000000      -0.00000000       0.00000000      -4.63060971 F F F
 Si             5.43000000       2.71500000       2.71500000      -0.00456486      -0.00254294      -0.00525266      -0.00000000       0.00000000      -0.00000000      -4.63060971 F F F
 Si             6.78750000       4.07250000       4.07250000      -0.00346049       0.00087935      -0.00431259      -0.00000000      -0.00000000      -0.00000000      -4.63060971 F F F
 Si             8.14500000       0.00000000       2.71500000       0.00355639       0.00304149      -0.00378232       0.00000000      -0.00000000      -0.00000000      -4.63060971 F F F
 Si             9.50250000       1.35750000       4.07250000      -0.00457957       0.00495516       0.00372358       0.00000000       0.00000000      -0.00000000      -4.63060971 F F F
 Si             8.14500000       2.71500000       0.00000000       0.00502330      -0.00007926      -0.00248047       0.00000000      -0.00000000       0.00000000      -4.63060971 F F F
 Si             9.50250000       4.07250000       1.35750000      -0.00242796      -0.00311674       0.00021509       0.00000000      -0.00000000       0.00000000      -4.63060971 F F F
 Si             5.43000000       0.00000000       5.43000000       0.00475115       0.00293945      -0.00092092      -0.00000000      -0.00000000       0.00000000      -4.63060971 F F F
 Si             6.78750000       1.35750000       6.78750000      -0.00443136      -0.00381958      -0.00293222      -0.00000000       0.00000000       0.00000000      -4.63060971 F F F
 Si             5.43000000       2.71500000       8.14500000       0.00247454      -0.00156483      -0.00534214      -0.00000000       0.00000000      -0.00000000      -4.63060971 F F F
 Si             6.78750000       4.07250000       9.50250000       0.00394499       0.00364942       0.00420968      -0.00000000      -0.00000000      -0.00000000      -4.63060971 F F F
 Si             8.14500000       0.00000000       8.14500000      -0.00093499       0.00260651      -0.00289140       0.00000000      -0.00000000      -0.00000000      -4.63060971 F F F
 Si             9.50250000       1.35750000       9.50250000      -0.00445192       0.00091505      -0.00358731       0.00000000       0.00000000      -0.00000000      -4.63060971 F F F
 Si             8.14500000       2.71500000       5.43000000       0.00266872       0.00278148      -0.00534541       0.00000000       0.00000000       0.00000000      -4.63060971 F F F
 Si             9.50250000       4.07250000       6.78750000       0.00231605       0.00033840      -0.00055460       0.00000000      -0.00000000       0.00000000      -4.63060971 F F F
 Si             5.43000000       0.00000000      10.86000000      -0.00002451      -0.00354644      -0.00407681      -0.00000000      -0.00000000       0.00000000      -4.63060971 F F F
 Si             6.78750000       1.35750000      12.21750000       0.00057994       0.00253059       0.00327751      -0.00000000       0.00000000       0.00000000      -4.63060971 F F F
 Si             5.43000000       2.71500000      13.57500000      -0.00008778       0.00022451      -0.00348916      -0.00000000      -0.00000000      -0.00000000      -4.63060971 F F F
 Si             6.78750000       4.07250000      14.93250000      -0.00078557       0.00125630       0.00037197      -0.00000000      -0.00000000      -0.00000000      -4.63060971 F F F
 Si             8.14500000       0.00000000      13.57500000       0.00473705      -0.00001540       0.00486772       0.00000000       0.00000000      -0.00000000      -4.63060971 F F F
 Si             9.50250000       1.35750000      14.93250000       0.00227931      -0.00343439      -0.00000994       0.00000000       0.00000000      -0.00000000      -4.63060971 F F F
 Si             8.14500000       2.71500000      10.86000000      -0.00102958      -0.00488863      -0.00009397       0.00000000       0.00000000       0.00000000      -4.63060971 F F F
 Si             9.50250000       4.07250000      12.21750000      -0.00455370      -0.00011909      -0.00287996       0.00000000      -0.00000000       0.00000000      -4.63060971 F F F
 Si             5.43000000       5.43000000       0.00000000       0.00281872       0.00130507       0.00162646      -0.00000000      -0.00000000       0.00000000      -4.63060971 F F F
 Si             6.78750000       6.78750000       1.35750000      -0.00324406      -0.00029551      -0.00317478      -0.00000000       0.00000000       0.00000000      -4.63060971 F F F
 Si             5.43000000       8.14500000       2.71500000       0.00031082       0.00456612       0.00285718      -0.00000000       0.00000000       0.00000000      -4.63060971 F F F
 Si             6.78750000       9.50250000       4.07250000      -0.00427142      -0.00180100       0.00457987      -0.00000000      -0.00000000      -0.00000000      -4.63060971 F F F
 Si             8.14500000       5.43000000       2.71500000      -0.00094630      -0.00351299      -0.00461854       0.00000000      -0.00000000       0.00000000      -4.63060971 F F F
 Si             9.50250000       6.78750000       4.07250000      -0.00315585       0.00397490       0.00285473       0.00000000       0.00000000      -0.00000000      -4.63060971 F F F
 Si             8.14500000       8.14500000       0.00000000      -0.00198494       0.00175689      -0.00009182       0.00000000       0.00000000       0.00000000      -4.63060971 F F F
 Si             9.50250000       9.50250000       1.35750000      -0.00135714      -0.00422688      -0.00462361       0.00000000      -0.00000000       0.00000000      -4.63060971 F F F
 Si             5.43000000       5.43000000       5.43000000      -0.00208684      -0.00390006       0.00061619      -0.00000000      -0.00000000       0.00000000      -4.63060971 F F F
 Si             6.78750000       6.78750000       6.78750000       0.00280470      -0.00302075      -0.00247055      -0.00000000       0.00000000       0.00000000      -4.63060971 F F F
 Si             5.43000000       8.14500000       8.14500000      -0.00433996      -0.00394131       0.00301015      -0.00000000       0.00000000      -0.00000000      -4.63060971 F F F
 Si             6.78750000       9.50250000       9.50250000       0.00055420      -0.00139915      -0.00398855      -0.00000000      -0.00000000      -0.00000000      -4.63060971 F F F
 Si             8.14500000       5.43000000       8.14500000      -0.00337976       0.00365952      -0.00522583       0.00000000      -0.00000000      -0.00000000      -4.63060971 F F F
 Si             9.50250000       6.78750000       9.50250000       0.00123045       0.00293875       0.00297230       0.00000000       0.00000000      -0.00000000      -4.63060971 F F F
 Si             8.14500000       8.14500000       5.43000000      -0.00134073       0.00227663       0.00473841       0.00000000       0.00000000       0.00000000      -4.63060971 F F F
 Si             9.50250000       9.50250000       6.78750000      -0.00374934       0.00129001       0.00324055       0.00000000      -0.00000000       0.00000000      -4.63060971 F F F
 Si             5.43000000       5.43000000      10.86000000      -0.00112947      -0.00116022      -0.00020495      -0.00000000      -0.00000000       0.00000000      -4.63060971 F F F
 Si             6.78750000       6.78750000      12.21750000       0.00289634      -0.00026424      -0.00286170      -0.00000000       0.00000000       0.00000000      -4.63060971 F F F
 Si             5.43000000       8.14500000      13.57500000       0.00079648       0.00439404      -0.00166467      -0.00000000      -0.00000000      -0.00000000      -4.63060971 F F F
 Si             6.78750000       9.50250000      14.93250000       0.00042251      -0.00526447       0.00134569      -0.00000000      -0.00000000      -0.00000000      -4.63060971 F F F
 Si             8.14500000       5.43000000      13.57500000      -0.00392413       0.00101762      -0.00334184       0.00000000       0.00000000      -0.00000000      -4.63060971 F F F
 Si             9.50250000       6.78750000      14.93250000      -0.00289600       0.00096736      -0.00434458       0.00000000       0.00000000      -0.00000000      -4.63060971 F F F
 Si             8.14500000       8.14500000      10.86000000       0.00081392       0.00366829      -0.00030343       0.00000000       0.00000000       0.00000000      -4.63060971 F F F
 Si             9.50250000       9.50250000      12.21750000       0.00327221      -0.00064809       0.00113176       0.00000000      -0.00000000       0.00000000      -4.63060971 F F F
 Si             5.43000000      10.86000000       0.00000000       0.00042972      -0.00109642       0.00158370      -0.00000000      -0.00000000       0.00000000      -4.63060971 F F F
 Si             6.78750000      12.21750000       1.35750000      -0.00378935       0.00304946      -0.00530614      -0.00000000       0.00000000       0.00000000      -4.63060971 F F F
 Si             5.43000000      13.57500000       2.71500000       0.00383908      -0.00288439       0.00134100      -0.00000000       0.00000000      -0.00000000      -4.63060971 F F F
 Si             6.78750000      14.93250000       4.07250000       0.00174213      -0.00138441      -0.00159510      -0.00000000      -0.00000000      -0.00000000      -4.63060971 F F F
 Si             8.14500000      10.86000000       2.71500000       0.00056874       0.00138930      -0.00186396       0.00000000      -0.00000000      -0.00000000      -4.63060971 F F F
 Si             9.50250000      12.21750000       4.07250000       0.00351061      -0.00529791      -0.00045054       0.00000000       0.00000000      -0.00000000      -4.63060971 F F F
 Si             8.14500000      13.57500000       0.00000000      -0.00318646       0.00297486      -0.00017431       0.00000000       0.00000000       0.00000000      -4.63060971 F F F
 Si             9.50250000      14.93250000       1.35750000      -0.00371353      -0.00400542       0.00390572       0.00000000      -0.00000000       0.00000000      -4.63060971 F F F
 Si             5.43000000      10.86000000       5.43000000      -0.00064083       0.00089140       0.00012788      -0.00000000      -0.00000000       0.00000000      -4.63060971 F F F
 Si             6.78750000      12.21750000       6.78750000      -0.00313454       0.00206913      -0.00407307      -0.00000000       0.00000000       0.00000000      -4.63060971 F F F
 Si             5.43000000      13.57500000       8.14500000      -0.00039332       0.00480699       0.00285347      -0.00000000       0.00000000      -0.00000000      -4.63060971 F F F
 Si             6.78750000      14.93250000       9.50250000       0.00507134      -0.00516398       0.00173826      -0.00000000      -0.00000000      -0.00000000      -4.63060971 F F F
 Si             8.14500000      10.86000000       8.14500000      -0.00083922      -0.00048971       0.00458767       0.00000000      -0.00000000      -0.00000000      -4.63060971 F F F
 Si             9.50250000      12.21750000       9.50250000       0.00467462       0.00339072       0.00024393       0.00000000       0.00000000      -0.00000000      -4.63060971 F F F
 Si             8.14500000      13.57500000       5.43000000       0.00207062      -0.00275588      -0.00072140       0.00000000       0.00000000       0.00000000      -4.63060971 F F F
 Si             9.50250000      14.93250000       6.78750000       0.00057133       0.00043796      -0.00018217       0.00000000      -0.00000000       0.00000000      -4.63060971 F F F
 Si             5.43000000      10.86000000      10.86000000      -0.00113661      -0.00322445       0.00441870      -0.00000000      -0.00000000       0.00000000      -4.63060971 F F F
 Si             6.78750000      12.21750000      12.21750000       0.00251924      -0.00125136      -0.00227210      -0.00000000       0.00000000       0.00000000      -4.63060971 F F F
 Si             5.43000000      13.57500000      13.57500000       0.00257956      -0.00381790      -0.00436077      -0.00000000      -0.00000000      -0.00000000      -4.63060971 F F F
 Si             6.78750000      14.93250000      14.93250000      -0.00477649      -0.00252807      -0.00424184      -0.00000000      -0.00000000      -0.00000000      -4.63060971 F F F
 Si             8.14500000      10.86000000      13.57500000       0.00272514       0.00260687      -0.00510057       0.00000000      -0.00000000      -0.00000000      -4.63060971 F F F
 Si             9.50250000      12.21750000      14.93250000      -0.00018180       0.00211424      -0.00349395       0.00000000       0.00000000      -0.00000000      -4.63060971 F F F
 Si             8.14500000      13.57500000      10.86000000      -0.00331555       0.00446365       0.00259645       0.00000000       0.00000000       0.00000000      -4.63060971 F F F
 Si             9.50250000      14.93250000      12.21750000       0.00053324      -0.00421807       0.00196702       0.00000000      -0.00000000       0.00000000      -4.63060971 F F F
 Si            10.86000000       0.00000000       0.00000000      -0.00058203       0.00429350      -0.00320238      -0.00000000      -0.00000000       0.00000000      -4.63060971 F F F
 Si            12.21750000       1.35750000       1.35750000      -0.00135877      -0.00498564       0.00481500      -0.00000000       0.00000000       0.00000000      -4.63060971 F F F
 Si            10.86000000       2.71500000       2.71500000       0.00016994       0.00203478      -0.00511564      -0.00000000       0.00000000       0.00000000      -4.63060971 F F F
 Si            12.21750000       4.07250000       4.07250000      -0.00140681      -0.00352663       0.00469306       0.00000000      -0.00000000      -0.00000000      -4.63060971 F F F
 Si            13.57500000       0.00000000       2.71500000      -0.00380118      -0.00096311       0.00067029      -0.00000000      -0.00000000      -0.00000000      -4.63060971 F F F
 Si            14.93250000       1.35750000       4.07250000      -0.00419446      -0.00185320      -0.00261057       0.00000000       0.00000000      -0.00000000      -4.63060971 F F F
 Si            13.57500000       2.71500000       0.00000000      -0.00076561       0.00025245      -0.00377055       0.00000000       0.00000000       0.00000000      -4.63060971 F F F
 Si            14.93250000       4.07250000       1.35750000       0.00081559       0.00178471       0.00043017       0.00000000      -0.00000000       0.00000000      -4.63060971 F F F
 Si            10.86000000       0.00000000       5.43000000      -0.00106178      -0.00010773       0.00289205      -0.00000000      -0.00000000       0.00000000      -4.63060971 F F F
 Si            12.21750000       1.35750000       6.78750000       0.00095478       0.00256171      -0.00207058      -0.00000000       0.00000000       0.00000000      -4.63060971 F F F
 Si            10.86000000       2.71500000       8.14500000       0.00275069      -0.00379544       0.00355084      -0.00000000       0.00000000      -0.00000000      -4.63060971 F F F
 Si            12.21750000       4.07250000       9.50250000      -0.00070211       0.00449637      -0.00300113       0.00000000      -0.00000000      -0.00000000      -4.63060971 F F F
 Si            13.57500000       0.00000000       8.14500000       0.00143924      -0.00177567       0.00410006      -0.00000000      -0.00000000      -0.00000000      -4.63060971 F F F