     384
 Properties=species:S:1:pos:R:3:forces:R:3:local_energy:R:1:hirshfeld_v:R:1 Lattice="26.5088000000       0.0000000000    0.0000000000    0.0000000000   20.9600000000    0.0000000000    0.0000000000    0.0000000000   13.1289000000" energy=-2137.757361 virial="-63.79647143         -0.00000000      0.00000004     -0.00000000     37.81394145     -0.03755420      0.00000004     -0.08941128    -14.68285685" stress="0.00874555            0.00000000     -0.00000000      0.00000000     -0.00518373      0.00000515     -0.00000000      0.00001226      0.00201280" volume=7294.737815
 P              1.65680000       1.06540304       0.35255473       0.00001762       0.14021001       0.02889058      -5.56707646       0.96938824
 P              1.65680000       9.41459696       4.02374527       0.00002028      -0.14137692      -0.02869326      -5.56707646       0.96938824
 P              0.00000000       1.06540304       1.83559527      -0.00017719       0.14045621      -0.02973603      -5.56707646       0.96938824
 P              0.00000000       9.41459696       2.54070473      -0.00028581      -0.14044949       0.02980451      -5.56707646       0.96938824
 P              0.00000000       6.30540304       0.35255473      -0.00035261       0.13946684       0.02981233      -5.56707646       0.96938824
 P              0.00000000       4.17459696       4.02374527      -0.00024244      -0.14047653      -0.02971124      -5.56707646       0.96938824
 P              1.65680000       6.30540304       1.83559527       0.00002028       0.14135640      -0.02875805      -5.56707646       0.96938824
 P              1.65680000       4.17459696       2.54070473       0.00002028      -0.14132280       0.02888079      -5.56707646       0.96938824
 P              1.65680000       1.06540304       4.72885473       0.00002028       0.14137698       0.02869375      -5.56707646       0.96938824
 P              1.65680000       9.41459696       8.40004527       0.00002028      -0.14137698      -0.02869375      -5.56707646       0.96938824
 P              0.00000000       1.06540304       6.21189527      -0.00024243       0.14047658      -0.02971173      -5.56707646       0.96938824
 P              0.00000000       9.41459696       6.91700473      -0.00024243      -0.14047659       0.02971173      -5.56707646       0.96938824
 P              0.00000000       6.30540304       4.72885473      -0.00024243       0.14047658       0.02971173      -5.56707646       0.96938824
 P              0.00000000       4.17459696       8.40004527      -0.00024243      -0.14047659      -0.02971173      -5.56707646       0.96938824
 P              1.65680000       6.30540304       6.21189527       0.00002028       0.14137698      -0.02869375      -5.56707646       0.96938824
 P              1.65680000       4.17459696       6.91700473       0.00002028      -0.14137699       0.02869375      -5.56707646       0.96938824
 P              1.65680000       1.06540304       9.10515473       0.00002028       0.14137692       0.02869327      -5.56707646       0.96938824
 P              1.65680000       9.41459696      12.77634527       0.00001762      -0.14021001      -0.02889058      -5.56707646       0.96938824
 P              0.00000000       1.06540304      10.58819527      -0.00028581       0.14044949      -0.02980451      -5.56707646       0.96938824
 P              0.00000000       9.41459696      11.29330473      -0.00017719      -0.14045621       0.02973602      -5.56707646       0.96938824
 P              0.00000000       6.30540304       9.10515473      -0.00024243       0.14047653       0.02971124      -5.56707646       0.96938824
 P              0.00000000       4.17459696      12.77634527      -0.00035261      -0.13946684      -0.02981233      -5.56707646       0.96938824
 P              1.65680000       6.30540304      10.58819527       0.00002028       0.14132280      -0.02888079      -5.56707646       0.96938824
 P              1.65680000       4.17459696      11.29330473       0.00002028      -0.14135640       0.02875805      -5.56707646       0.96938824
 P              4.97040000       1.06540304       0.35255473      -0.00000000       0.14023428       0.02876399      -5.56707646       0.96938824
 P              4.97040000       9.41459696       4.02374527       0.00000000      -0.14139779      -0.02856912      -5.56707646       0.96938824
 P              3.31360000       1.06540304       1.83559527       0.00000000       0.14137727      -0.02863390      -5.56707646       0.96938824
 P              3.31360000       9.41459696       2.54070473      -0.00000000      -0.14134367       0.02875665      -5.56707646       0.96938824
 P              3.31360000       6.30540304       0.35255473      -0.00000000       0.14023429       0.02876399      -5.56707646       0.96938824
 P              3.31360000       4.17459696       4.02374527       0.00000000      -0.14139780      -0.02856912      -5.56707646       0.96938824
 P              4.97040000       6.30540304       1.83559527       0.00000000       0.14137727      -0.02863390      -5.56707646       0.96938824
 P              4.97040000       4.17459696       2.54070473      -0.00000000      -0.14134367       0.02875665      -5.56707646       0.96938824
 P              4.97040000       1.06540304       4.72885473      -0.00000000       0.14139785       0.02856961      -5.56707646       0.96938824
 P              4.97040000       9.41459696       8.40004527       0.00000000      -0.14139785      -0.02856961      -5.56707646       0.96938824
 P              3.31360000       1.06540304       6.21189527       0.00000000       0.14139785      -0.02856961      -5.56707646       0.96938824
 P              3.31360000       9.41459696       6.91700473      -0.00000000      -0.14139785       0.02856961      -5.56707646       0.96938824
 P              3.31360000       6.30540304       4.72885473      -0.00000000       0.14139785       0.02856961      -5.56707646       0.96938824
 P              3.31360000       4.17459696       8.40004527       0.00000000      -0.14139785      -0.02856961      -5.56707646       0.96938824
 P              4.97040000       6.30540304       6.21189527       0.00000000       0.14139785      -0.02856961      -5.56707646       0.96938824
 P              4.97040000       4.17459696       6.91700473      -0.00000000      -0.14139785       0.02856961      -5.56707646       0.96938824
 P              4.97040000       1.06540304       9.10515473       0.00000000       0.14139779       0.02856912      -5.56707646       0.96938824
 P              4.97040000       9.41459696      12.77634527      -0.00000000      -0.14023428      -0.02876399      -5.56707646       0.96938824
 P              3.31360000       1.06540304      10.58819527       0.00000000       0.14134367      -0.02875665      -5.56707646       0.96938824
 P              3.31360000       9.41459696      11.29330473      -0.00000000      -0.14137727       0.02863390      -5.56707646       0.96938824
 P              3.31360000       6.30540304       9.10515473      -0.00000000       0.14139779       0.02856912      -5.56707646       0.96938824
 P              3.31360000       4.17459696      12.77634527      -0.00000000      -0.14023429      -0.02876399      -5.56707646       0.96938824
 P              4.97040000       6.30540304      10.58819527       0.00000000       0.14134367      -0.02875665      -5.56707646       0.96938824
 P              4.97040000       4.17459696      11.29330473      -0.00000000      -0.14137727       0.02863390      -5.56707646       0.96938824
 P              8.28400000       1.06540304       0.35255473       0.00000000       0.14023428       0.02876399      -5.56707646       0.96938824
 P              8.28400000       9.41459696       4.02374527      -0.00000000      -0.14139780      -0.02856912      -5.56707646       0.96938824
 P              6.62720000       1.06540304       1.83559527       0.00000000       0.14137727      -0.02863390      -5.56707646       0.96938824
 P              6.62720000       9.41459696       2.54070473      -0.00000000      -0.14134367       0.02875665      -5.56707646       0.96938824
 P              6.62720000       6.30540304       0.35255473      -0.00000000       0.14023429       0.02876399      -5.56707646       0.96938824
 P              6.62720000       4.17459696       4.02374527      -0.00000000      -0.14139780      -0.02856912      -5.56707646       0.96938824
 P              8.28400000       6.30540304       1.83559527       0.00000000       0.14137727      -0.02863390      -5.56707646       0.96938824
 P              8.28400000       4.17459696       2.54070473       0.00000000      -0.14134367       0.02875665      -5.56707646       0.96938824
 P              8.28400000       1.06540304       4.72885473      -0.00000000       0.14139785       0.02856961      -5.56707646       0.96938824
 P              8.28400000       9.41459696       8.40004527       0.00000000      -0.14139785      -0.02856961      -5.56707646       0.96938824
 P              6.62720000       1.06540304       6.21189527       0.00000000       0.14139785      -0.02856961      -5.56707646       0.96938824
 P              6.62720000       9.41459696       6.91700473       0.00000000      -0.14139785       0.02856961      -5.56707646       0.96938824
 P              6.62720000       6.30540304       4.72885473       0.00000000       0.14139785       0.02856961      -5.56707646       0.96938824
 P              6.62720000       4.17459696       8.40004527      -0.00000000      -0.14139785      -0.02856961      -5.56707646       0.96938824
 P              8.28400000       6.30540304       6.21189527      -0.00000000       0.14139785      -0.02856961      -5.56707646       0.96938824
 P              8.28400000       4.17459696       6.91700473       0.00000000      -0.14139785       0.02856961      -5.56707646       0.96938824
 P              8.28400000       1.06540304       9.10515473      -0.00000000       0.14139779       0.02856912      -5.56707646       0.96938824
 P              8.28400000       9.41459696      12.77634527      -0.00000000      -0.14023429      -0.02876399      -5.56707646       0.96938824
 P              6.62720000       1.06540304      10.58819527       0.00000000       0.14134367      -0.02875665      -5.56707646       0.96938824
 P              6.62720000       9.41459696      11.29330473      -0.00000000      -0.14137727       0.02863390      -5.56707646       0.96938824
 P              6.62720000       6.30540304       9.10515473       0.00000000       0.14139779       0.02856912      -5.56707646       0.96938824
 P              6.62720000       4.17459696      12.77634527      -0.00000000      -0.14023428      -0.02876399      -5.56707646       0.96938824
 P              8.28400000       6.30540304      10.58819527       0.00000000       0.14134367      -0.02875665      -5.56707646       0.96938824
 P              8.28400000       4.17459696      11.29330473      -0.00000000      -0.14137727       0.02863390      -5.56707646       0.96938824
 P             11.59760000       1.06540304       0.35255473      -0.00000000       0.14023428       0.02876399      -5.56707646       0.96938824
 P             11.59760000       9.41459696       4.02374527       0.00000000      -0.14139779      -0.02856912      -5.56707646       0.96938824
 P              9.94080000       1.06540304       1.83559527       0.00000000       0.14137727      -0.02863390      -5.56707646       0.96938824
 P              9.94080000       9.41459696       2.54070473      -0.00000000      -0.14134367       0.02875665      -5.56707646       0.96938824
 P              9.94080000       6.30540304       0.35255473       0.00000000       0.14023429       0.02876399      -5.56707646       0.96938824
 P              9.94080000       4.17459696       4.02374527      -0.00000000      -0.14139780      -0.02856912      -5.56707646       0.96938824
 P             11.59760000       6.30540304       1.83559527       0.00000000       0.14137727      -0.02863390      -5.56707646       0.96938824
 P             11.59760000       4.17459696       2.54070473      -0.00000000      -0.14134367       0.02875665      -5.56707646       0.96938824
 P             11.59760000       1.06540304       4.72885473       0.00000000       0.14139785       0.02856961      -5.56707646       0.96938824
 P             11.59760000       9.41459696       8.40004527       0.00000000      -0.14139785      -0.02856961      -5.56707646       0.96938824
 P              9.94080000       1.06540304       6.21189527      -0.00000000       0.14139785      -0.02856961      -5.56707646       0.96938824
 P              9.94080000       9.41459696       6.91700473       0.00000000      -0.14139785       0.02856961      -5.56707646       0.96938824
 P              9.94080000       6.30540304       4.72885473      -0.00000000       0.14139785       0.02856961      -5.56707646       0.96938824
 P              9.94080000       4.17459696       8.40004527       0.00000000      -0.14139785      -0.02856961      -5.56707646       0.96938824
 P             11.59760000       6.30540304       6.21189527      -0.00000000       0.14139785      -0.02856961      -5.56707646       0.96938824
 P             11.59760000       4.17459696       6.91700473      -0.00000000      -0.14139785       0.02856961      -5.56707646       0.96938824
 P             11.59760000       1.06540304       9.10515473       0.00000000       0.14139779       0.02856912      -5.56707646       0.96938824
 P             11.59760000       9.41459696      12.77634527      -0.00000000      -0.14023428      -0.02876399      -5.56707646       0.96938824
 P              9.94080000       1.06540304      10.58819527       0.00000000       0.14134367      -0.02875665      -5.56707646       0.96938824
 P              9.94080000       9.41459696      11.29330473      -0.00000000      -0.14137727       0.02863390      -5.56707646       0.96938824
 P              9.94080000       6.30540304       9.10515473      -0.00000000       0.14139779       0.02856912      -5.56707646       0.96938824
 P              9.94080000       4.17459696      12.77634527      -0.00000000      -0.14023429      -0.02876399      -5.56707646       0.96938824
 P             11.59760000       6.30540304      10.58819527       0.00000000       0.14134367      -0.02875665      -5.56707646       0.96938824
 P             11.59760000       4.17459696      11.29330473      -0.00000000      -0.14137727       0.02863390      -5.56707646       0.96938824
 P              1.65680000      11.54540304       0.35255473       0.00001762       0.14021001       0.02889058      -5.56707646       0.96938824
 P              1.65680000      19.89459696       4.02374527       0.00002028      -0.14137692      -0.02869326      -5.56707646       0.96938824
 P              0.00000000      11.54540304       1.83559527      -0.00017719       0.14045621      -0.02973602      -5.56707646       0.96938824
 P              0.00000000      19.89459696       2.54070473      -0.00028581      -0.14044949       0.02980450      -5.56707646       0.96938824
 P              0.00000000      16.78540304       0.35255473      -0.00035261       0.13946684       0.02981233      -5.56707646       0.96938824
 P              0.00000000      14.65459696       4.02374527      -0.00024243      -0.14047653      -0.02971124      -5.56707646       0.96938824
 P              1.65680000      16.78540304       1.83559527       0.00002028       0.14135640      -0.02875804      -5.56707646       0.96938824
 P              1.65680000      14.65459696       2.54070473       0.00002028      -0.14132280       0.02888079      -5.56707646       0.96938824
 P              1.65680000      11.54540304       4.72885473       0.00002028       0.14137698       0.02869375      -5.56707646       0.96938824
 P              1.65680000      19.89459696       8.40004527       0.00002028      -0.14137698      -0.02869375      -5.56707646       0.96938824
 P              0.00000000      11.54540304       6.21189527      -0.00024243       0.14047659      -0.02971173      -5.56707646       0.96938824
 P              0.00000000      19.89459696       6.91700473      -0.00024243      -0.14047659       0.02971173      -5.56707646       0.96938824
 P              0.00000000      16.78540304       4.72885473      -0.00024243       0.14047659       0.02971173      -5.56707646       0.96938824
 P              0.00000000      14.65459696       8.40004527      -0.00024243      -0.14047658      -0.02971173      -5.56707646       0.96938824
 P              1.65680000      16.78540304       6.21189527       0.00002028       0.14137698      -0.02869375      -5.56707646       0.96938824
 P              1.65680000      14.65459696       6.91700473       0.00002028      -0.14137698       0.02869375      -5.56707646       0.96938824
 P              1.65680000      11.54540304       9.10515473       0.00002028       0.14137692       0.02869326      -5.56707646       0.96938824
 P              1.65680000      19.89459696      12.77634527       0.00001762      -0.14021001      -0.02889058      -5.56707646       0.96938824
 P              0.00000000      11.54540304      10.58819527      -0.00028581       0.14044949      -0.02980451      -5.56707646       0.96938824
 P              0.00000000      19.89459696      11.29330473      -0.00017719      -0.14045621       0.02973603      -5.56707646       0.96938824
 P              0.00000000      16.78540304       9.10515473      -0.00024243       0.14047653       0.02971124      -5.56707646       0.96938824
 P              0.00000000      14.65459696      12.77634527      -0.00035261      -0.13946684      -0.02981233      -5.56707646       0.96938824
 P              1.65680000      16.78540304      10.58819527       0.00002028       0.14132280      -0.02888079      -5.56707646       0.96938824
 P              1.65680000      14.65459696      11.29330473       0.00002028      -0.14135640       0.02875804      -5.56707646       0.96938824
 P              4.97040000      11.54540304       0.35255473       0.00000000       0.14023429       0.02876399      -5.56707646       0.96938824
 P              4.97040000      19.89459696       4.02374527      -0.00000000      -0.14139779      -0.02856912      -5.56707646       0.96938824
 P              3.31360000      11.54540304       1.83559527       0.00000000       0.14137727      -0.02863390      -5.56707646       0.96938824
 P              3.31360000      19.89459696       2.54070473      -0.00000000      -0.14134367       0.02875665      -5.56707646       0.96938824
 P              3.31360000      16.78540304       0.35255473      -0.00000000       0.14023429       0.02876399      -5.56707646       0.96938824
 P              3.31360000      14.65459696       4.02374527      -0.00000000      -0.14139779      -0.02856912      -5.56707646       0.96938824
 P              4.97040000      16.78540304       1.83559527       0.00000000       0.14137727      -0.02863390      -5.56707646       0.96938824
 P              4.97040000      14.65459696       2.54070473      -0.00000000      -0.14134367       0.02875665      -5.56707646       0.96938824
 P              4.97040000      11.54540304       4.72885473      -0.00000000       0.14139785       0.02856961      -5.56707646       0.96938824
 P              4.97040000      19.89459696       8.40004527      -0.00000000      -0.14139785      -0.02856961      -5.56707646       0.96938824
 P              3.31360000      11.54540304       6.21189527       0.00000000       0.14139785      -0.02856961      -5.56707646       0.96938824
 P              3.31360000      19.89459696       6.91700473      -0.00000000      -0.14139785       0.02856961      -5.56707646       0.96938824
 P              3.31360000      16.78540304       4.72885473      -0.00000000       0.14139785       0.02856961      -5.56707646       0.96938824
 P              3.31360000      14.65459696       8.40004527      -0.00000000      -0.14139785      -0.02856961      -5.56707646       0.96938824
 P              4.97040000      16.78540304       6.21189527       0.00000000       0.14139785      -0.02856961      -5.56707646       0.96938824
 P              4.97040000      14.65459696       6.91700473       0.00000000      -0.14139785       0.02856961      -5.56707646       0.96938824
 P              4.97040000      11.54540304       9.10515473       0.00000000       0.14139779       0.02856912      -5.56707646       0.96938824
 P              4.97040000      19.89459696      12.77634527      -0.00000000      -0.14023429      -0.02876399      -5.56707646       0.96938824
 P              3.31360000      11.54540304      10.58819527      -0.00000000       0.14134367      -0.02875665      -5.56707646       0.96938824
 P              3.31360000      19.89459696      11.29330473      -0.00000000      -0.14137727       0.02863390      -5.56707646       0.96938824
 P              3.31360000      16.78540304       9.10515473      -0.00000000       0.14139779       0.02856912      -5.56707646       0.96938824
 P              3.31360000      14.65459696      12.77634527      -0.00000000      -0.14023428      -0.02876399      -5.56707646       0.96938824
 P              4.97040000      16.78540304      10.58819527       0.00000000       0.14134367      -0.02875665      -5.56707646       0.96938824
 P              4.97040000      14.65459696      11.29330473      -0.00000000      -0.14137727       0.02863390      -5.56707646       0.96938824
 P              8.28400000      11.54540304       0.35255473      -0.00000000       0.14023429       0.02876399      -5.56707646       0.96938824
 P              8.28400000      19.89459696       4.02374527       0.00000000      -0.14139779      -0.02856912      -5.56707646       0.96938824
 P              6.62720000      11.54540304       1.83559527       0.00000000       0.14137727      -0.02863390      -5.56707646       0.96938824
 P              6.62720000      19.89459696       2.54070473      -0.00000000      -0.14134367       0.02875665      -5.56707646       0.96938824
 P              6.62720000      16.78540304       0.35255473      -0.00000000       0.14023429       0.02876399      -5.56707646       0.96938824
 P              6.62720000      14.65459696       4.02374527      -0.00000000      -0.14139779      -0.02856912      -5.56707646       0.96938824
 P              8.28400000      16.78540304       1.83559527       0.00000000       0.14137727      -0.02863390      -5.56707646       0.96938824
 P              8.28400000      14.65459696       2.54070473      -0.00000000      -0.14134367       0.02875665      -5.56707646       0.96938824
 P              8.28400000      11.54540304       4.72885473      -0.00000000       0.14139785       0.02856961      -5.56707646       0.96938824
 P              8.28400000      19.89459696       8.40004527       0.00000000      -0.14139785      -0.02856961      -5.56707646       0.96938824
 P              6.62720000      11.54540304       6.21189527      -0.00000000       0.14139785      -0.02856961      -5.56707646       0.96938824
 P              6.62720000      19.89459696       6.91700473      -0.00000000      -0.14139785       0.02856961      -5.56707646       0.96938824
 P              6.62720000      16.78540304       4.72885473       0.00000000       0.14139785       0.02856961      -5.56707646       0.96938824
 P              6.62720000      14.65459696       8.40004527       0.00000000      -0.14139785      -0.02856961      -5.56707646       0.96938824
 P              8.28400000      16.78540304       6.21189527      -0.00000000       0.14139785      -0.02856961      -5.56707646       0.96938824
 P              8.28400000      14.65459696       6.91700473      -0.00000000      -0.14139785       0.02856961      -5.56707646       0.96938824
 P              8.28400000      11.54540304       9.10515473       0.00000000       0.14139779       0.02856912      -5.56707646       0.96938824
 P              8.28400000      19.89459696      12.77634527      -0.00000000      -0.14023429      -0.02876399      -5.56707646       0.96938824
 P              6.62720000      11.54540304      10.58819527       0.00000000       0.14134367      -0.02875665      -5.56707646       0.96938824
 P              6.62720000      19.89459696      11.29330473      -0.00000000      -0.14137727       0.02863390      -5.56707646       0.96938824
 P              6.62720000      16.78540304       9.10515473       0.00000000       0.14139779       0.02856912      -5.56707646       0.96938824
 P              6.62720000      14.65459696      12.77634527      -0.00000000      -0.14023428      -0.02876399      -5.56707646       0.96938824
 P              8.28400000      16.78540304      10.58819527       0.00000000       0.14134367      -0.02875665      -5.56707646       0.96938824
 P              8.28400000      14.65459696      11.29330473      -0.00000000      -0.14137727       0.02863390      -5.56707646       0.96938824
 P             11.59760000      11.54540304       0.35255473      -0.00000000       0.14023429       0.02876399      -5.56707646       0.96938824
 P             11.59760000      19.89459696       4.02374527      -0.00000000      -0.14139779      -0.02856912      -5.56707646       0.96938824
 P              9.94080000      11.54540304       1.83559527       0.00000000       0.14137727      -0.02863390      -5.56707646       0.96938824
 P              9.94080000      19.89459696       2.54070473      -0.00000000      -0.14134367       0.02875665      -5.56707646       0.96938824
 P              9.94080000      16.78540304       0.35255473      -0.00000000       0.14023429       0.02876399      -5.56707646       0.96938824
 P              9.94080000      14.65459696       4.02374527       0.00000000      -0.14139779      -0.02856912      -5.56707646       0.96938824
 P             11.59760000      16.78540304       1.83559527      -0.00000000       0.14137727      -0.02863390      -5.56707646       0.96938824
 P             11.59760000      14.65459696       2.54070473       0.00000000      -0.14134367       0.02875665      -5.56707646       0.96938824
 P             11.59760000      11.54540304       4.72885473       0.00000000       0.14139785       0.02856961      -5.56707646       0.96938824
 P             11.59760000      19.89459696       8.40004527       0.00000000      -0.14139785      -0.02856961      -5.56707646       0.96938824
 P              9.94080000      11.54540304       6.21189527       0.00000000       0.14139785      -0.02856961      -5.56707646       0.96938824
 P              9.94080000      19.89459696       6.91700473      -0.00000000      -0.14139785       0.02856961      -5.56707646       0.96938824
 P              9.94080000      16.78540304       4.72885473      -0.00000000       0.14139785       0.02856961      -5.56707646       0.96938824
 P              9.94080000      14.65459696       8.40004527       0.00000000      -0.14139785      -0.02856961      -5.56707646       0.96938824
 P             11.59760000      16.78540304       6.21189527      -0.00000000       0.14139785      -0.02856961      -5.56707646       0.96938824
 P             11.59760000      14.65459696       6.91700473       0.00000000      -0.14139785       0.02856961      -5.56707646       0.96938824
 P             11.59760000      11.54540304       9.10515473       0.00000000       0.14139779       0.02856912      -5.56707646       0.96938824
 P             11.59760000      19.89459696      12.77634527      -0.00000000      -0.14023429      -0.02876399      -5.56707646       0.96938824
 P              9.94080000      11.54540304      10.58819527       0.00000000       0.14134367      -0.02875665      -5.56707646       0.96938824
 P              9.94080000      19.89459696      11.29330473      -0.00000000      -0.14137727       0.02863390      -5.56707646       0.96938824
 P              9.94080000      16.78540304       9.10515473       0.00000000       0.14139779       0.02856912      -5.56707646       0.96938824
 P              9.94080000      14.65459696      12.77634527       0.00000000      -0.14023428      -0.02876399      -5.56707646       0.96938824
 P             11.59760000      16.78540304      10.58819527       0.00000000       0.14134367      -0.02875665      -5.56707646       0.96938824
 P             11.59760000      14.65459696      11.29330473      -0.00000000      -0.14137727       0.02863390      -5.56707646       0.96938824
 P             14.91120000       1.06540304       0.35255473       0.00000000       0.14023429       0.02876399      -5.56707646       0.96938824
 P             14.91120000       9.41459696       4.02374527       0.00000000      -0.14139779      -0.02856912      -5.56707646       0.96938824
 P             13.25440000       1.06540304       1.83559527       0.00000000       0.14137727      -0.02863390      -5.56707646       0.96938824
 P             13.25440000       9.41459696       2.54070473      -0.00000000      -0.14134367       0.02875665      -5.56707646       0.96938824
 P             13.25440000       6.30540304       0.35255473      -0.00000000       0.14023429       0.02876399      -5.56707646       0.96938824
 P             13.25440000       4.17459696       4.02374527       0.00000000      -0.14139779      -0.02856912      -5.56707646       0.96938824
 P             14.91120000       6.30540304       1.83559527       0.00000000       0.14137727      -0.02863390      -5.56707646       0.96938824
 P             14.91120000       4.17459696       2.54070473      -0.00000000      -0.14134367       0.02875665      -5.56707646       0.96938824
 P             14.91120000       1.06540304       4.72885473      -0.00000000       0.14139785       0.02856961      -5.56707646       0.96938824