512
Lattice="17.5589570312 0.0 0.0 0.0 17.7712514289 0.0 0.0 0.0 17.2175376634" Properties=species:S:1:pos:R:3:velocities:R:3:forces:R:3:local_energy:R:1:fix_atoms:S:3 temperature=0.0 pressure=-3126.5227892 time_step=1.0 time=215.0 energy=-4321.582608 virial="-6.95865421 -17.63980264 -22.08438761 -17.63980264 -2.8551523 -19.83355217 -22.08438761 -19.83355217 -21.63906004" stress="0.0012952 0.00328327 0.00411053 0.00328327 0.00053142 0.00369158 0.00411053 0.00369158 0.00402764" volume=5372.640346 step=215 pbc="T T T"
C        4.39625950       7.79414272      11.91703476       0.00000000       0.00000000       0.00000000      -0.00176072      -0.00403021       0.00040093      -8.32055960 F F F
C        6.96822775       6.93764880       9.95957679       0.00000000       0.00000000       0.00000000      -0.00125419       0.00060398      -0.00169378      -8.52540328 F F F
C        7.68322540       9.72469162       1.29520592       0.00000000       0.00000000       0.00000000       0.00321478       0.00104174       0.00009653      -8.23980365 F F F
C        3.06755201       9.07737979      13.68690920       0.00000000       0.00000000       0.00000000       0.00274770      -0.00183514       0.00238505      -8.43136706 F F F
C        8.29469110       8.13593943      14.60827147       0.00000000       0.00000000       0.00000000      -0.00337770      -0.00122385       0.00092377      -8.51198081 F F F
C        4.03334052      16.60904690      14.09438174       0.00000000       0.00000000       0.00000000       0.00282170      -0.00111776       0.00279601      -8.80706897 F F F
C        2.06909834      11.18371593       9.05397973       0.00000000       0.00000000       0.00000000       0.00037303       0.00205259       0.00219844      -7.97400707 F F F
C        8.61132831       1.82521204       5.32376317       0.00000000       0.00000000       0.00000000       0.00012606      -0.00009162      -0.00472452      -8.35880064 F F F
C       15.59351711       2.93559907       5.12484498       0.00000000       0.00000000       0.00000000      -0.00028406      -0.00022163      -0.00083051      -8.80710293 F F F
C       12.28891551      12.85484569       2.69726846       0.00000000       0.00000000       0.00000000       0.00523359      -0.00128156      -0.00251276      -8.01738081 F F F
C       15.45216871       5.71083273       2.73337939       0.00000000       0.00000000       0.00000000       0.00492784      -0.00159692       0.00333741      -8.13309469 F F F
C        0.80333193       8.22825538      11.02780359       0.00000000       0.00000000       0.00000000      -0.00062866       0.00000128       0.00358767      -7.42336005 F F F
C        2.59189117       7.36603738       4.54620202       0.00000000       0.00000000       0.00000000      -0.00349589       0.00038578      -0.00155669      -8.73149214 F F F
C        6.25071373      10.69083661      10.94186799       0.00000000       0.00000000       0.00000000      -0.00236165      -0.00223409      -0.00100753      -8.30490708 F F F
C       11.72561246      15.91104959       5.55039909       0.00000000       0.00000000       0.00000000       0.00101293       0.00175037       0.00146971      -8.24378182 F F F
C       14.64029307      16.35469740       3.61127125       0.00000000       0.00000000       0.00000000       0.00024099       0.00123335       0.00098476      -7.88243096 F F F
C       14.88046851       8.58840327      12.35419212       0.00000000       0.00000000       0.00000000      -0.00067602       0.00127151       0.00465908      -8.74825692 F F F
C        5.76856275       2.22207960       9.58968727       0.00000000       0.00000000       0.00000000      -0.00344003       0.00263504      -0.00088880      -8.61469927 F F F
C        1.60320353       8.08687689      15.18939225       0.00000000       0.00000000       0.00000000       0.00268450      -0.00242554      -0.00002119      -8.22843959 F F F
C        1.84528092      14.17157900       6.56658500       0.00000000       0.00000000       0.00000000       0.00080335       0.00035906       0.00115233      -8.34226731 F F F
C       13.25575333      15.14694164       8.03276531       0.00000000       0.00000000       0.00000000      -0.00069618      -0.00076642       0.00182725      -8.28195340 F F F
C        7.46659829      16.01047906       3.35566186       0.00000000       0.00000000       0.00000000       0.00142132       0.00248250      -0.00065460      -8.90822682 F F F
C        5.42847567       6.13110093      13.63650237       0.00000000       0.00000000       0.00000000      -0.00210793      -0.00291343       0.00187882      -8.59368860 F F F
C        5.02789620      11.49196056      11.11447326       0.00000000       0.00000000       0.00000000      -0.00086864      -0.00116698      -0.00095107      -8.14665743 F F F
C       12.73209911      13.21701046       3.79695628       0.00000000       0.00000000       0.00000000       0.00292368       0.00035186      -0.00098703      -8.63357176 F F F
C        6.98462013       4.64006416       4.09246734       0.00000000       0.00000000       0.00000000       0.00053098       0.00131735      -0.00967939      -8.08320668 F F F
C       15.70914761       4.88095967       0.54611794       0.00000000       0.00000000       0.00000000       0.00133735      -0.00145443       0.00259709      -8.79269215 F F F
C        0.12111228      11.59445706       4.65190087       0.00000000       0.00000000       0.00000000       0.00044731       0.00086676       0.00174764      -8.44046412 F F F
C        7.77683883      15.35889498      16.57424218       0.00000000       0.00000000       0.00000000       0.00094567       0.00202489      -0.00080643      -8.26378152 F F F
C       12.78774447       1.24279868      16.33750592       0.00000000       0.00000000       0.00000000       0.00001096      -0.00253629       0.00015770      -7.90689330 F F F
C        1.50501204       3.28126423       6.46069322       0.00000000       0.00000000       0.00000000      -0.00105514       0.00103702      -0.00141161      -8.60406908 F F F
C       13.24257085       1.90007515       5.10899527       0.00000000       0.00000000       0.00000000      -0.00058413       0.00135629       0.00009552      -9.00444164 F F F
C        0.62296630       2.27338318      16.38323268       0.00000000       0.00000000       0.00000000       0.00004670       0.00070985      -0.00553137      -8.64872485 F F F
C        5.66322396       3.66818002       0.14968565       0.00000000       0.00000000       0.00000000       0.00103382      -0.00098125       0.00482564      -8.16232978 F F F
C       13.30858357      16.71880108      13.41726500       0.00000000       0.00000000       0.00000000      -0.00023701      -0.00107716      -0.00116260      -8.24908975 F F F
C        9.99494313      17.57759896      11.31461747       0.00000000       0.00000000       0.00000000      -0.00220724       0.00071541      -0.00114442      -8.73201282 F F F
C       14.06272147       3.54859485       3.28437994       0.00000000       0.00000000       0.00000000       0.00113407      -0.00031661      -0.00201202      -7.94731017 F F F
C        1.91282718      13.42930164      10.30749985       0.00000000       0.00000000       0.00000000       0.00108506       0.00150742       0.00384210      -8.85220558 F F F
C       15.82467587      10.14249148       3.47744159       0.00000000       0.00000000       0.00000000       0.00218822      -0.00117862       0.00095753      -8.89004746 F F F
C        2.53946851      10.44066062      13.66269437       0.00000000       0.00000000       0.00000000       0.00143287      -0.00193667       0.00150783      -8.59452797 F F F
C        6.64253970       3.28841198       9.04903820       0.00000000       0.00000000       0.00000000      -0.00236443       0.00125791      -0.00172254      -8.56106379 F F F
C        9.41575285       5.57332771      12.07848860       0.00000000       0.00000000       0.00000000      -0.00224072       0.00081561       0.00087353      -8.18292219 F F F
C        4.95225218      16.06396524      13.06584983       0.00000000       0.00000000       0.00000000       0.00145983      -0.00006497       0.00144016      -8.76008988 F F F
C       10.11356466      14.49445096       9.69950252       0.00000000       0.00000000       0.00000000      -0.00264751      -0.00311556      -0.00150577      -8.16911371 F F F
C       12.01654301      11.97456178      12.55210434       0.00000000       0.00000000       0.00000000      -0.00138461      -0.00295770       0.00056759      -9.02271963 F F F
C        0.82556784      16.83410147       9.00029313       0.00000000       0.00000000       0.00000000       0.00014705       0.00057263       0.00007311      -8.80050509 F F F
C       10.10737255       6.96953855       1.83835686       0.00000000       0.00000000       0.00000000       0.00467770       0.00072574      -0.00673045      -8.37512399 F F F
C       16.27715991       4.88870480       1.90712020       0.00000000       0.00000000       0.00000000       0.00378770      -0.00162180       0.00167164      -8.70567633 F F F
C       14.66281345      10.44619942       2.62155766       0.00000000       0.00000000       0.00000000       0.00259354      -0.00207555      -0.00040630      -8.25880932 F F F
C        2.40384264       5.46894957       9.35384197       0.00000000       0.00000000       0.00000000      -0.00180585      -0.00127084       0.00152392      -8.05258781 F F F
C       15.25476514       7.10709235       2.41676463       0.00000000       0.00000000       0.00000000       0.00548723      -0.00146227       0.00420640      -8.53929913 F F F
C        5.77789138       6.33065980       1.10147740       0.00000000       0.00000000       0.00000000       0.00267676       0.00029333       0.00342648      -8.99047138 F F F
C       13.35932901      10.17974026       3.05818719       0.00000000       0.00000000       0.00000000       0.00291624      -0.00191369      -0.00022623      -8.53499180 F F F
C       13.77013732      11.67322533       0.59400690       0.00000000       0.00000000       0.00000000       0.00425614      -0.00119422      -0.00199200      -8.56265403 F F F
C       14.06619452       6.40545603      16.09227011       0.00000000       0.00000000       0.00000000      -0.00034423      -0.00023946       0.00487163      -9.30739649 F F F
C       12.30134437      14.13056732       8.18105811       0.00000000       0.00000000       0.00000000      -0.00089256      -0.00133276      -0.00005626      -8.58270874 F F F
C        4.55700841      15.25277180       1.39256213       0.00000000       0.00000000       0.00000000       0.00205844       0.00099693       0.00209224      -8.33395766 F F F
C       16.96730127       1.48708302       1.01838812       0.00000000       0.00000000       0.00000000       0.00444482      -0.00087463      -0.00206762      -8.61363530 F F F
C        3.81938832       3.00278440       6.71177242       0.00000000       0.00000000       0.00000000      -0.00131602      -0.00002361      -0.00472489      -8.44331477 F F F
C       15.45806371       9.01490735       4.35622114       0.00000000       0.00000000       0.00000000       0.00205081      -0.00079642       0.00219991      -7.88701492 F F F
C       17.14189095       1.39377850       2.42700156       0.00000000       0.00000000       0.00000000       0.00450467      -0.00087537      -0.00139173      -8.74361949 F F F
C        8.01172176      16.12098482      11.65524327       0.00000000       0.00000000       0.00000000      -0.00202615      -0.00007553      -0.00112634      -8.55420943 F F F
C       13.71429391       4.81085844      14.36407111       0.00000000       0.00000000       0.00000000      -0.00011848      -0.00066414       0.00446518      -8.69822896 F F F
C        2.66285369       5.49011383       3.22343748       0.00000000       0.00000000       0.00000000      -0.00135346       0.00031293      -0.00346817      -8.44126562 F F F
C       13.51953136       2.36616094      17.09253987       0.00000000       0.00000000       0.00000000       0.00154023      -0.00085600      -0.00386289      -8.01714961 F F F
C        1.48317106       9.83557861       8.92059753       0.00000000       0.00000000       0.00000000       0.00082119       0.00194724       0.00313849      -8.47986177 F F F
C        8.67606374      10.29862214      11.84505860       0.00000000       0.00000000       0.00000000      -0.00330927      -0.00082854      -0.00079500      -9.11468871 F F F
C        9.87088983      11.09199527      12.35776118       0.00000000       0.00000000       0.00000000      -0.00244309      -0.00118933      -0.00017814      -8.59673835 F F F
C       13.39795607       8.06350301       6.95085984       0.00000000       0.00000000       0.00000000      -0.00238767       0.00068960       0.00072177      -8.76115043 F F F
C        2.93700961      12.75272319       4.65063296       0.00000000       0.00000000       0.00000000       0.00149765       0.00011558       0.00133647      -8.48605179 F F F
C        3.34522375       8.19876000       3.56679693       0.00000000       0.00000000       0.00000000      -0.00127751       0.00079645      -0.00041297      -9.01967480 F F F
C       16.76931300       6.16448253      11.64982487       0.00000000       0.00000000       0.00000000      -0.00161870       0.00057501       0.00279019      -8.66405673 F F F
C       13.60497828       8.27695365      11.80818438       0.00000000       0.00000000       0.00000000      -0.00100531       0.00075284       0.00405180      -8.88833376 F F F
C       17.38117638      10.33337160      10.43576513       0.00000000       0.00000000       0.00000000       0.00104073       0.00068147       0.00416812      -8.45846529 F F F
C        7.74085726       0.73611514      11.75471944       0.00000000       0.00000000       0.00000000      -0.00243157       0.00113463      -0.00185416      -8.62701438 F F F
C        2.59857989       1.30369880      15.63006823       0.00000000       0.00000000       0.00000000       0.00096268      -0.00222037      -0.00101617      -8.97383213 F F F
C       17.20166742       2.70009696       3.26069945       0.00000000       0.00000000       0.00000000       0.00273933      -0.00126403      -0.00079524      -8.51402544 F F F
C        3.41561769      14.69539360      11.67747919       0.00000000       0.00000000       0.00000000      -0.00065863       0.00131820       0.00448696      -8.55812098 F F F
C       13.03938062       0.31860439      13.87790549       0.00000000       0.00000000       0.00000000      -0.00030627      -0.00157519       0.00003853      -7.27758066 F F F
C        9.31918333       6.17860554      15.84938759       0.00000000       0.00000000       0.00000000      -0.00090580      -0.00175371       0.00036120      -8.45454213 F F F
C        6.53581875      14.13034064       9.45361102       0.00000000       0.00000000       0.00000000      -0.00386811       0.00055183      -0.00040258      -8.55972101 F F F
C       10.04188343       6.87543489      12.06257942       0.00000000       0.00000000       0.00000000      -0.00217792       0.00102696       0.00192846      -8.24432371 F F F
C       11.03693907       4.34814476      14.89830345       0.00000000       0.00000000       0.00000000      -0.00032033      -0.00179649       0.00308256      -8.79820510 F F F
C        5.64931756       0.43794240      13.58256299       0.00000000       0.00000000       0.00000000       0.00039772      -0.00010286       0.00083211      -8.92594936 F F F
C        3.83912979       1.04251513       8.25211941       0.00000000       0.00000000       0.00000000      -0.00074351       0.00068197      -0.00377245      -8.55122960 F F F
C        7.66761424      10.75895153      10.68636901       0.00000000       0.00000000       0.00000000      -0.00300414      -0.00214633      -0.00241313      -7.66534756 F F F
C       12.70572560       0.61515089       4.53443236       0.00000000       0.00000000       0.00000000      -0.00019304       0.00118677       0.00084678      -8.07866797 F F F
C        4.38083856       7.93766265       2.57722576       0.00000000       0.00000000       0.00000000       0.00118917       0.00122610       0.00126113      -8.97644113 F F F
C        1.12165937       5.99406027       8.64809283       0.00000000       0.00000000       0.00000000      -0.00228875       0.00087595       0.00146640      -7.95285393 F F F
C        3.33610404      11.39769200       8.57703897       0.00000000       0.00000000       0.00000000      -0.00062505       0.00239235      -0.00292407      -8.74754501 F F F
C       11.67259980      15.24204824      11.81303250       0.00000000       0.00000000       0.00000000      -0.00141324       0.00028282      -0.00271871      -7.85153967 F F F
C       11.48746880       1.03515209      16.70849139       0.00000000       0.00000000       0.00000000      -0.00005649      -0.00099282       0.00220157      -8.53999881 F F F
C        8.28761599      10.76661336      15.07925005       0.00000000       0.00000000       0.00000000      -0.00294948      -0.00102906       0.00144731      -8.15527476 F F F
C       16.07957652       9.68712883      10.41769391       0.00000000       0.00000000       0.00000000       0.00046428       0.00094355       0.00329966      -8.20521948 F F F
C        9.13686030      16.20426691       1.77848040       0.00000000       0.00000000       0.00000000       0.00122115       0.00299477      -0.00050790      -8.84283214 F F F
C        3.09460506      12.06981873       3.44994479       0.00000000       0.00000000       0.00000000       0.00136526       0.00041904       0.00117377      -7.88951421 F F F
C       15.57127664       4.25415981      12.84982909       0.00000000       0.00000000       0.00000000       0.00023894      -0.00013396       0.00349133      -8.78612184 F F F
C       10.41505645       9.89591051       1.59264890       0.00000000       0.00000000       0.00000000       0.00346388       0.00120281      -0.00523251      -9.48750056 F F F
C       11.38857104       0.09633202      10.75602850       0.00000000       0.00000000       0.00000000      -0.00197429       0.00147064      -0.00091318      -8.47669370 F F F
C        7.81503331       5.83912659       7.80810465       0.00000000       0.00000000       0.00000000      -0.00207687       0.00121455      -0.00385074      -8.35061083 F F F
C        2.48428830       5.94667694       4.54246344       0.00000000       0.00000000       0.00000000      -0.00311395       0.00059149      -0.00323802      -7.83287367 F F F
C       13.26864905       0.40090539      15.25487818       0.00000000       0.00000000       0.00000000      -0.00042094      -0.00279516       0.00018972      -8.61604064 F F F
C        3.16672976       2.11675343       7.62943495       0.00000000       0.00000000       0.00000000      -0.00094713       0.00007619      -0.00441869      -8.87656375 F F F
C       10.56107693       9.55321632      15.32041806       0.00000000       0.00000000       0.00000000      -0.00252087      -0.00225126      -0.00147357      -8.17993109 F F F
C        5.35800994       7.11457829      12.66430461       0.00000000       0.00000000       0.00000000      -0.00187195      -0.00338872       0.00077336      -8.96506377 F F F
C       14.28536879      12.86905171      17.12432807       0.00000000       0.00000000       0.00000000       0.00329561       0.00078766      -0.00087976      -7.72090816 F F F
C        6.00711767      11.61972695      14.67975767       0.00000000       0.00000000       0.00000000      -0.00190767       0.00050213       0.00347856      -8.46286778 F F F
C       10.48201187       4.39242178       1.66669943       0.00000000       0.00000000       0.00000000       0.00277719       0.00014837      -0.00649096      -7.86411309 F F F
C       10.13050234      11.46081414      13.75258384       0.00000000       0.00000000       0.00000000      -0.00161713      -0.00240868       0.00036814      -8.49714384 F F F
C        2.96538121       8.54972131      15.02818014       0.00000000       0.00000000       0.00000000       0.00276029      -0.00133879       0.00236416      -8.10134795 F F F
C       17.22056588       3.87906823       2.33376327       0.00000000       0.00000000       0.00000000       0.00370680      -0.00205108      -0.00086827      -8.21212437 F F F
C       16.60198258      11.89271616      13.77559900       0.00000000       0.00000000       0.00000000      -0.00094746      -0.00364629       0.00537318      -8.38727879 F F F
C       13.22403578       4.00547906       7.77909598       0.00000000       0.00000000       0.00000000      -0.00078545       0.00259367      -0.00042798      -7.84217194 F F F
C        0.61518914       9.04262208      15.44787040       0.00000000       0.00000000       0.00000000       0.00334629      -0.00310242       0.00473292      -8.55933354 F F F
C        0.86157677      14.03189074       2.11101866       0.00000000       0.00000000       0.00000000       0.00211889       0.00015388       0.00072796      -8.36229533 F F F
C       10.97072181      12.58486021       8.10631880       0.00000000       0.00000000       0.00000000      -0.00035777      -0.00146864      -0.00378366      -8.53751392 F F F
C        4.70943923      14.92851876      12.26252610       0.00000000       0.00000000       0.00000000       0.00049432       0.00000269       0.00189333      -8.12482109 F F F
C        0.48992950      11.56821229      10.86542566       0.00000000       0.00000000       0.00000000       0.00153616       0.00083146       0.00407428      -8.39468892 F F F
C        9.66615460       2.50155799       8.91418480       0.00000000       0.00000000       0.00000000      -0.00329840       0.00284168      -0.00248959      -7.59718417 F F F
C       13.46971498       4.26351560       9.08759034       0.00000000       0.00000000       0.00000000       0.00029108       0.00227967      -0.00041395      -8.79558272 F F F
C       10.29827956      15.13249558      11.05377204       0.00000000       0.00000000       0.00000000      -0.00195338      -0.00036483      -0.00211332      -8.22009321 F F F
C       11.81848251       3.98280034       7.18779013       0.00000000       0.00000000       0.00000000      -0.00109592       0.00358472      -0.00115868      -8.04874546 F F F
C        9.11016123      11.17931287       5.96139151       0.00000000       0.00000000       0.00000000      -0.00355995       0.00502510      -0.00544273      -8.61137065 F F F
C        8.96781435       1.59208997      14.81449001       0.00000000       0.00000000       0.00000000       0.00011628      -0.00122894       0.00124657      -7.79239301 F F F
C        7.42160585       4.45895472      11.11765154       0.00000000       0.00000000       0.00000000      -0.00188370       0.00102082      -0.00154212      -8.35762691 F F F
C        0.00018640       1.76066433       9.37472989       0.00000000       0.00000000       0.00000000       0.00008884       0.00084323       0.00046557      -8.73173201 F F F
C        8.62994625      15.27067940       6.72031180       0.00000000       0.00000000       0.00000000      -0.00215279      -0.00183283      -0.00069227      -8.08855710 F F F
C        2.62213554      13.45590459      11.53625970       0.00000000       0.00000000       0.00000000       0.00042142       0.00102984       0.00416696      -8.83376137 F F F
C       13.79961844      12.23349550      10.07496591       0.00000000       0.00000000       0.00000000      -0.00040861      -0.00094680       0.00114819      -8.85816748 F F F
C       14.65339011      15.09558631       7.59634732       0.00000000       0.00000000       0.00000000      -0.00065925      -0.00072490       0.00092419      -8.18829104 F F F
C       13.55574708      15.94585203       0.18624227       0.00000000       0.00000000       0.00000000       0.00183668      -0.00036781       0.00079705      -8.15575789 F F F
C        0.32960450      12.73831602       1.49257146       0.00000000       0.00000000       0.00000000       0.00227077       0.00014656       0.00103106      -8.47309172 F F F
C        4.93504459      12.34665823       9.96154392       0.00000000       0.00000000       0.00000000      -0.00136923      -0.00103244      -0.00137872      -8.16825985 F F F
C        1.26352930       9.41432704       7.55139959       0.00000000       0.00000000       0.00000000       0.00277734       0.00178853       0.00246121      -8.25774971 F F F
C       10.83690203       7.59730275       2.82999557       0.00000000       0.00000000       0.00000000       0.00330424       0.00052910      -0.00509833      -8.57864744 F F F
C        6.76481665      16.28389753       2.18541628       0.00000000       0.00000000       0.00000000       0.00108847       0.00269686       0.00027509      -8.73722796 F F F
C       14.79694732       2.83644458      16.88773625       0.00000000       0.00000000       0.00000000       0.00157666      -0.00007892      -0.00431809      -8.49772448 F F F
C        8.56916518      15.64343863       5.38725269       0.00000000       0.00000000       0.00000000      -0.00006967       0.00027360      -0.00053150      -8.54526440 F F F
C       13.33191271      12.45634789      12.51439673       0.00000000       0.00000000       0.00000000      -0.00009871      -0.00441089       0.00135380      -8.50403639 F F F
C       16.22547317       7.78581945      14.38756794       0.00000000       0.00000000       0.00000000       0.00069123      -0.00060930       0.00434922      -8.38571887 F F F
C        1.35913402      10.94315356      14.33216514       0.00000000       0.00000000       0.00000000       0.00151054      -0.00300260       0.00243856      -8.64831115 F F F
C        5.22343434      16.45408476       5.89026388       0.00000000       0.00000000       0.00000000      -0.00099298       0.00050127      -0.00433263      -8.51526074 F F F
C        8.68268637       5.42190055       6.81315222       0.00000000       0.00000000       0.00000000      -0.00207332       0.00171674      -0.00479082      -7.41183421 F F F
C       14.53131299      17.31241754      15.38286935       0.00000000       0.00000000       0.00000000       0.00029538      -0.00233220      -0.00041793      -9.12993052 F F F
C        3.17571500       3.45333172      11.03124000       0.00000000       0.00000000       0.00000000      -0.00403610      -0.00133708       0.00363100      -7.69957536 F F F
C       11.11190520       5.72337680       9.86276896       0.00000000       0.00000000       0.00000000      -0.00306804       0.00220744       0.00007563      -8.75137417 F F F
C       11.86050502       2.68887781       4.89849800       0.00000000       0.00000000       0.00000000      -0.00054527       0.00137482      -0.00085471      -7.63640240 F F F
C       15.12932725      12.60426817       7.91081352       0.00000000       0.00000000       0.00000000       0.00172420      -0.00056906       0.00160970      -8.22108012 F F F
C       15.05077712       7.26109192       0.95546930       0.00000000       0.00000000       0.00000000       0.00313820      -0.00148274       0.00435170      -8.65529649 F F F
C        4.63623517       6.57770316       1.97660865       0.00000000       0.00000000       0.00000000       0.00167456       0.00150840       0.00147978      -8.55164849 F F F
C       13.46614222       2.93547176      11.17258075       0.00000000       0.00000000       0.00000000       0.00004364       0.00234563       0.00082924      -8.31763843 F F F
C        9.71331221      10.97732728      15.07943384       0.00000000       0.00000000       0.00000000      -0.00173293      -0.00273009       0.00023300      -7.68351580 F F F
C       11.32954929      12.21832346      13.75470908       0.00000000       0.00000000       0.00000000      -0.00148358      -0.00229396       0.00050662      -8.83082814 F F F
C       16.07473017      16.22842086       4.26855593       0.00000000       0.00000000       0.00000000       0.00017416       0.00065962       0.00029908      -8.88912586 F F F
C        7.93841643       0.86443545       6.03663406       0.00000000       0.00000000       0.00000000      -0.00083614       0.00173231      -0.00329218      -7.44139630 F F F
C       16.72979466      10.42601252      17.21442583       0.00000000       0.00000000       0.00000000       0.00337774      -0.00103733       0.00254034      -8.82458691 F F F
C        9.37738617      16.29949986      11.23510282       0.00000000       0.00000000       0.00000000      -0.00177987       0.00007829      -0.00142234      -8.57748611 F F F
C       12.28611704      11.38559724       0.78072718       0.00000000       0.00000000       0.00000000       0.00484495      -0.00122930      -0.00250633      -8.74527958 F F F
C       14.90846123       7.80741977       3.72300193       0.00000000       0.00000000       0.00000000       0.00371463      -0.00166933       0.00360346      -8.63126565 F F F
C       14.78007241      16.48481253      16.74179626       0.00000000       0.00000000       0.00000000       0.00222200      -0.00152135       0.00014189      -8.19380060 F F F
C       16.14671758       1.84490337      12.43405214       0.00000000       0.00000000       0.00000000      -0.00105351      -0.00018789       0.00007484      -8.33981045 F F F
C       10.64859279      14.90082645      12.62297024       0.00000000       0.00000000       0.00000000      -0.00064332      -0.00081897      -0.00216783      -8.07685153 F F F
C       12.60150302      17.45511489      11.30837277       0.00000000       0.00000000       0.00000000      -0.00176589       0.00097880      -0.00099481      -8.54523477 F F F
C       10.45648282       1.33625636       8.66246706       0.00000000       0.00000000       0.00000000      -0.00238217       0.00330186      -0.00098522      -8.53012069 F F F