      17
 Properties=species:S:1:pos:R:3:forces:R:3:local_energy:R:1:hirshfeld_v:R:1 Lattice="24.9485351000       0.0000000000    0.0000000000    0.0000000000   24.3500137000    0.0000000000    0.0000000000    0.0000000000   24.0796789000" energy=-100.300006 virial="-7.94304024           0.00000130      0.00000047      0.00000130     -7.94303816     -0.00000198      0.00000047     -0.00000198      1.88362269" stress="0.00054299           -0.00000000     -0.00000000     -0.00000000      0.00054299      0.00000000     -0.00000000      0.00000000     -0.00012877" volume=14628.336822
 C             13.86747920      12.21129940      10.00002140      -1.51114899      -0.03793834      -0.11466933      -7.13747074       0.80838733
 C             13.20229780      10.98660660      10.00000000      -0.79287223       1.29190668      -0.10908012      -7.13747124       0.80838909
 C             11.80908170      10.95030040      10.00002140       0.72271957       1.32766618      -0.11466929      -7.13747071       0.80838733
 C             11.08105730      12.13871090      10.00000000       1.51526237       0.04068634      -0.10908012      -7.13747119       0.80838908
 C             11.74622330      13.36342440      10.00002140       0.78843086      -1.28972362      -0.11466936      -7.13747064       0.80838732
 C             13.13942910      13.39970680      10.00000000      -0.72238960      -1.33259776      -0.10908014      -7.13747148       0.80838908
 H             14.94853510      12.23945650      10.00157770      -0.24167441      -0.00618498       0.00447054      -5.55712752       0.61819828
 H             13.76722020      10.06446720      10.00156160      -0.12617888       0.20576987       0.00389441      -5.55711025       0.61820034
 H             11.29293850      10.00000000      10.00157770       0.11548087       0.21238880       0.00447054      -5.55712756       0.61819828
 H             10.00000000      12.11054340      10.00156160       0.24128964       0.00638894       0.00389441      -5.55711036       0.61820033
 H             11.18131060      14.28556770      10.00157770       0.12619342      -0.20620225       0.00447054      -5.55712751       0.61819827
 H             13.65556400      14.35001370      10.00156160      -0.11511262      -0.21215984       0.00389441      -5.55711019       0.61820034
 C             12.47426140      12.17500810      13.71592120       0.00000016       0.00000194       0.23874390      -4.26507532       0.73388439
 H             13.06113900      13.01318230      14.07967890       0.06735699       0.09566704      -0.01725453      -4.94641938       0.58940252
 H             11.45494250      12.26417190      14.07967890      -0.11653039       0.01049900      -0.01725414      -4.94641939       0.58940252
 H             12.47426140      12.17500810      12.62997140      -0.00000041       0.00000081       0.45917073      -5.02813272       0.75796225
 H             12.90670270      11.24767010      14.07967870       0.04917363      -0.10616882      -0.01725245      -4.94641940       0.58940252
      12
 Properties=species:S:1:pos:R:3:forces:R:3:local_energy:R:1:hirshfeld_v:R:1 Lattice="24.9485351000       0.0000000000    0.0000000000    0.0000000000   24.3500137000    0.0000000000    0.0000000000    0.0000000000   20.0015777000" energy=-76.290549 virial="-8.83746270           0.00000268     -0.00000000      0.00000268     -8.83746011      0.00000000     -0.00000000      0.00000000     -0.00005477" stress="0.00072731           -0.00000000      0.00000000     -0.00000000      0.00072731     -0.00000000      0.00000000     -0.00000000      0.00000000" volume=12150.901878
 C             13.86747920      12.21129940      10.00002140      -1.66129474      -0.04295316       0.00554463      -7.15674527       0.80792148
 C             13.20229780      10.98660660      10.00000000      -0.86802386       1.41628156       0.00616224      -7.15673207       0.80792314
 C             11.80908170      10.95030040      10.00002140       0.79344947       1.46020361       0.00554463      -7.15674523       0.80792148
 C             11.08105730      12.13871090      10.00000000       1.66055001       0.04358213       0.00616223      -7.15673201       0.80792314
 C             11.74622330      13.36342440      10.00002140       0.86784671      -1.41724624       0.00554463      -7.15674517       0.80792147
 C             13.13942910      13.39970680      10.00000000      -0.79252560      -1.45986844       0.00616224      -7.15673231       0.80792314
 H             14.94853510      12.23945650      10.00157770      -0.25455086      -0.00651072      -0.00580870      -5.55836451       0.61818980
 H             13.76722020      10.06446720      10.00156160      -0.13311314       0.21706041      -0.00589817      -5.55834103       0.61819186
 H             11.29293850      10.00000000      10.00157770       0.12163699       0.22370301      -0.00580870      -5.55836455       0.61818980
 H             10.00000000      12.11054340      10.00156160       0.25453466       0.00674892      -0.00589816      -5.55834115       0.61819185
 H             11.18131060      14.28556770      10.00157770       0.13291375      -0.21719071      -0.00580870      -5.55836450       0.61818979
 H             13.65556400      14.35001370      10.00156160      -0.12142338      -0.22381036      -0.00589817      -5.55834097       0.61819186
       5
 Properties=species:S:1:pos:R:3:forces:R:3:local_energy:R:1:hirshfeld_v:R:1 Lattice="21.6061965000       0.0000000000    0.0000000000    0.0000000000   21.7655122000    0.0000000000    0.0000000000    0.0000000000   21.4497075000" energy=-24.036170 virial="0.18884407           -0.00000137      0.00000051     -0.00000137      0.18884358     -0.00000190      0.00000051     -0.00000190      0.15265405" stress="-0.00001872           0.00000000     -0.00000000      0.00000000     -0.00001872      0.00000000     -0.00000000      0.00000000     -0.00001513" volume=10087.152520
 C             11.01931890      10.92733800      11.08594980       0.00000017       0.00000195       0.03052720      -4.25386680       0.73388439
 H             11.60619650      11.76551220      11.44970750       0.07057079       0.10078790       0.02747668      -4.94460997       0.58940252
 H             10.00000000      11.01650180      11.44970750      -0.12257208       0.01072180       0.02747706      -4.94460998       0.58940252
 H             11.01931890      10.92733800      10.00000000      -0.00000040       0.00000084      -0.11295973      -4.94847303       0.58929055
 H             11.45176020      10.00000000      11.44970730       0.05200153      -0.11151248       0.02747877      -4.94460999       0.58940252
      24
 Properties=species:S:1:pos:R:3:forces:R:3:local_energy:R:1:hirshfeld_v:R:1 Lattice="26.6060844000       0.0000000000    0.0000000000    0.0000000000   24.5838098000    0.0000000000    0.0000000000    0.0000000000   24.2875954000" energy=-152.651856 virial="-5.68953209           8.46516892     -0.00000000      8.46516892    -11.73752247      0.00000000     -0.00000000      0.00000000    -17.50748088" stress="0.00035815           -0.00053287      0.00000000     -0.00053287      0.00073886     -0.00000000      0.00000000     -0.00000000      0.00110207" volume=15886.004130
 C             12.25521700      10.87023130      12.14379770      -0.98315076       1.34428063       0.00000000      -7.15083260       0.80826461
 C             11.84853880      11.43645900      13.35000250      -0.48087878       0.68661404      -1.38972112      -7.15950973       0.80887953
 C             11.84853880      11.43645900      10.93759290      -0.48087878       0.68661405       1.38972112      -7.15950973       0.80887953
 C             11.03624520      12.56906590      13.35075160       0.46687260      -0.67044012      -1.43306934      -7.16223863       0.80805431
 C             10.63156410      13.13692600      12.14379770       0.97734777      -1.35631082      -0.00000000      -7.16160087       0.80809747
 C             11.03624520      12.56906590      10.93684380       0.46687260      -0.67044012       1.43306934      -7.16223863       0.80805431
 H             12.16918880      10.99984560      10.00148270      -0.10064784       0.10735797       0.22144761      -5.56104224       0.61900903
 H             10.72054790      13.00821150      10.00000000       0.06389098      -0.11455683       0.23160896      -5.55873238       0.61825808
 H             10.00000000      14.01517490      12.14379770       0.15145481      -0.21432165      -0.00000000      -5.55826427       0.61824490
 H             10.72054790      13.00821150      14.28759540       0.06389098      -0.11455683      -0.23160896      -5.55873238       0.61825808
 H             12.16918880      10.99984560      14.28611270      -0.10064785       0.10735797      -0.22144761      -5.56104224       0.61900903
 H             12.89701690      10.00000000      12.14379770      -0.13737115       0.19821250       0.00000000      -5.57218422       0.62057538
 C             14.35086740      13.71357850      12.14379770       0.98315077      -1.34428064      -0.00000000      -7.15083260       0.80826461
 C             14.75754560      13.14735080      10.93759290       0.48087878      -0.68661404       1.38972113      -7.15950973       0.80887953
 C             14.75754560      13.14735080      13.35000250       0.48087878      -0.68661404      -1.38972112      -7.15950973       0.80887953
 C             15.56983920      12.01474390      10.93684380      -0.46687260       0.67044013       1.43306935      -7.16223863       0.80805431
 C             15.97452030      11.44688380      12.14379770      -0.97734777       1.35631083       0.00000000      -7.16160087       0.80809747
 C             15.56983920      12.01474390      13.35075160      -0.46687260       0.67044012      -1.43306934      -7.16223863       0.80805431
 H             13.70906750      14.58380980      12.14379770       0.13737115      -0.19821250      -0.00000000      -5.57218422       0.62057538
 H             14.43689560      13.58396420      14.28611270       0.10064785      -0.10735797      -0.22144761      -5.56104224       0.61900903
 H             15.88553650      11.57559830      14.28759540      -0.06389099       0.11455684      -0.23160896      -5.55873238       0.61825808
 H             16.60608440      10.56863490      12.14379770      -0.15145481       0.21432165       0.00000000      -5.55826427       0.61824490
 H             15.88553650      11.57559830      10.00000000      -0.06389098       0.11455683       0.23160895      -5.55873238       0.61825808
 H             14.43689560      13.58396420      10.00148270       0.10064784      -0.10735797       0.22144761      -5.56104224       0.61900903
      12
 Properties=species:S:1:pos:R:3:forces:R:3:local_energy:R:1:hirshfeld_v:R:1 Lattice="22.8970169000       0.0000000000    0.0000000000    0.0000000000   24.0151749000    0.0000000000    0.0000000000    0.0000000000   24.2875954000" energy=-76.290491 virial="-3.03291582           4.22479787      0.00000000      4.22479787     -5.88814041     -0.00000000      0.00000000     -0.00000000     -8.77337868" stress="0.00022710           -0.00031634     -0.00000000     -0.00031634      0.00044089      0.00000000     -0.00000000      0.00000000      0.00065693" volume=13355.162543
 C             12.25521700      10.87023130      12.14379770      -0.91113027       1.39392305       0.00000000      -7.15578560       0.80780773
 C             11.84853880      11.43645900      13.35000250      -0.46320473       0.69382861      -1.40136361      -7.15729086       0.80794492
 C             11.84853880      11.43645900      10.93759290      -0.46320473       0.69382861       1.40136361      -7.15729086       0.80794492
 C             11.03624520      12.56906590      13.35075160       0.48059827      -0.66786932      -1.44204406      -7.15805824       0.80798267
 C             10.63156410      13.13692600      12.14379770       0.93762005      -1.37673597      -0.00000000      -7.15614723       0.80801390
 C             11.03624520      12.56906590      10.93684380       0.48059827      -0.66786932       1.44204406      -7.15805824       0.80798267
 H             12.16918880      10.99984560      10.00148270      -0.10186382       0.10082738       0.21388274      -5.55745183       0.61824804
 H             10.72054790      13.00821150      10.00000000       0.07957627      -0.11387695       0.23214547      -5.55815041       0.61825416
 H             10.00000000      14.01517490      12.14379770       0.16506152      -0.21435203      -0.00000000      -5.55818391       0.61824321
 H             10.72054790      13.00821150      14.28759540       0.07957627      -0.11387695      -0.23214547      -5.55815041       0.61825416
 H             12.16918880      10.99984560      14.28611270      -0.10186382       0.10082738      -0.21388274      -5.55745183       0.61824804
 H             12.89701690      10.00000000      12.14379770      -0.18176328       0.17134550      -0.00000000      -5.55847152       0.61806705
      12
 Properties=species:S:1:pos:R:3:forces:R:3:local_energy:R:1:hirshfeld_v:R:1 Lattice="22.8970169000       0.0000000000    0.0000000000    0.0000000000   24.0151749000    0.0000000000    0.0000000000    0.0000000000   24.2875954000" energy=-76.290491 virial="-3.03291582           4.22479787     -0.00000000      4.22479787     -5.88814041      0.00000000     -0.00000000      0.00000000     -8.77337869" stress="0.00022710           -0.00031634      0.00000000     -0.00031634      0.00044089     -0.00000000      0.00000000     -0.00000000      0.00065693" volume=13355.162543
 C             10.64179990      13.14494360      12.14379770       0.91113028      -1.39392305      -0.00000000      -7.15578559       0.80780773
 C             11.04847810      12.57871590      10.93759290       0.46320473      -0.69382861       1.40136361      -7.15729086       0.80794492
 C             11.04847810      12.57871590      13.35000250       0.46320473      -0.69382861      -1.40136361      -7.15729086       0.80794492
 C             11.86077170      11.44610900      10.93684380      -0.48059827       0.66786932       1.44204406      -7.15805824       0.80798267
 C             12.26545280      10.87824890      12.14379770      -0.93762005       1.37673597       0.00000000      -7.15614723       0.80801390
 C             11.86077170      11.44610900      13.35075160      -0.48059827       0.66786932      -1.44204405      -7.15805824       0.80798267
 H             10.00000000      14.01517490      12.14379770       0.18176328      -0.17134550      -0.00000000      -5.55847152       0.61806705
 H             10.72782810      13.01532930      14.28611270       0.10186382      -0.10082738      -0.21388274      -5.55745183       0.61824804
 H             12.17646900      11.00696340      14.28759540      -0.07957627       0.11387695      -0.23214547      -5.55815041       0.61825416
 H             12.89701690      10.00000000      12.14379770      -0.16506152       0.21435203       0.00000000      -5.55818391       0.61824321
 H             12.17646900      11.00696340      10.00000000      -0.07957627       0.11387695       0.23214547      -5.55815041       0.61825416
 H             10.72782810      13.01532930      10.00148270       0.10186382      -0.10082738       0.21388274      -5.55745183       0.61824804
      24
 Properties=species:S:1:pos:R:3:forces:R:3:local_energy:R:1:hirshfeld_v:R:1 Lattice="24.9507990000       0.0000000000    0.0000000000    0.0000000000   24.2871314000    0.0000000000    0.0000000000    0.0000000000   27.3847776000" energy=-152.019694 virial="-7.20936266          -0.00000000      0.00000000     -0.00000000    -15.95693253      0.00000000      0.00000000      0.00000000     -3.84308404" stress="0.00043444            0.00000000     -0.00000000      0.00000000      0.00096157     -0.00000000     -0.00000000     -0.00000000      0.00023158" volume=16594.718827
 C             12.47539950      12.14356570      13.51366300       0.00000000      -0.00000000       2.20214212      -7.15318013       0.80775547
 C             12.47539950      10.93755730      14.21230190       0.00000000       1.18692528       0.94184384      -7.16326382       0.80809050
 C             12.47539950      10.93638900      15.60621820       0.00000000       1.45215460      -0.83620270      -7.16075118       0.80797686
 C             12.47539950      12.14356570      16.30320280      -0.00000000       0.00000000      -1.66660351      -7.15574405       0.80802265
 C             12.47539950      13.35074240      15.60621820       0.00000000      -1.45215460      -0.83620270      -7.16075117       0.80797686
 C             12.47539950      13.34957410      14.21230190      -0.00000000      -1.18692528       0.94184384      -7.16326382       0.80809050
 H             12.47539950      12.14356570      12.43304720      -0.00000000       0.00000000       1.34984551      -5.27152938       0.84607554
 H             12.47539950      10.00192700      13.66904940       0.00000000       0.34320507       0.11226165      -5.55839215       0.61840329
 H             12.47539950      10.00000000      16.14762300      -0.00000000       0.22575634      -0.14774517      -5.55940221       0.61823092
 H             12.47539950      12.14356570      17.38477760       0.00000000       0.00000000      -0.26075951      -5.55806577       0.61824050
 H             12.47539950      14.28713140      16.14762300      -0.00000000      -0.22575634      -0.14774516      -5.55940221       0.61823092
 H             12.47539950      14.28520440      13.66904940       0.00000000      -0.34320507       0.11226165      -5.55839215       0.61840329
 C             11.08133620      12.14356570      10.00047530       1.30912945      -0.00000000      -0.27915833      -7.10903141       0.80801519
 C             11.77835270      13.35080350      10.00000000       0.65514999      -1.12438819      -0.29346354      -7.11073984       0.80804491
 C             13.17244630      13.35080350      10.00000000      -0.65514999      -1.12438819      -0.29346354      -7.11073984       0.80804491
 C             13.86946280      12.14356570      10.00047530      -1.30912946      -0.00000000      -0.27915833      -7.10903141       0.80801519
 C             13.17244630      10.93632790      10.00000000      -0.65514999       1.12438819      -0.29346354      -7.11073984       0.80804491
 C             11.77835270      10.93632790      10.00000000       0.65514999       1.12438819      -0.29346354      -7.11073984       0.80804491
 H             10.00000000      12.14356570      10.00430560       0.22881977      -0.00000000      -0.00526965      -5.55600198       0.61825166
 H             11.23716740      14.28713120      10.00095130       0.12110461      -0.20066206      -0.00555744      -5.55613236       0.61827988
 H             13.71363160      14.28713120      10.00095130      -0.12110462      -0.20066206      -0.00555744      -5.55613236       0.61827988
 H             14.95079900      12.14356570      10.00430560      -0.22881977       0.00000000      -0.00526965      -5.55600198       0.61825166
 H             13.71363160      10.00000020      10.00095130      -0.12110462       0.20066206      -0.00555744      -5.55613236       0.61827988
 H             11.23716740      10.00000020      10.00095130       0.12110461       0.20066206      -0.00555744      -5.55613236       0.61827988
      12
 Properties=species:S:1:pos:R:3:forces:R:3:local_energy:R:1:hirshfeld_v:R:1 Lattice="20.0000000000       0.0000000000    0.0000000000    0.0000000000   24.2871314000    0.0000000000    0.0000000000    0.0000000000   24.9517304000" energy=-76.287988 virial="0.00000000            0.00000000     -0.00000000      0.00000000     -8.78149778     -0.00000000     -0.00000000     -0.00000000     -9.05125889" stress="-0.00000000          -0.00000000      0.00000000     -0.00000000      0.00072454      0.00000000      0.00000000      0.00000000      0.00074680" volume=12120.119098
 C             10.00000000      12.14356570      11.08061580      -0.00000000      -0.00000000       1.75065784      -7.15304865       0.80773926
 C             10.00000000      10.93755730      11.77925470       0.00000000       1.39536614       0.80465465      -7.15676070       0.80809050
 C             10.00000000      10.93638900      13.17317100       0.00000000       1.45665296      -0.84724058      -7.15886369       0.80797686
 C             10.00000000      12.14356570      13.87015560      -0.00000000       0.00000000      -1.66661979      -7.15460356       0.80802265
 C             10.00000000      13.35074240      13.17317100       0.00000000      -1.45665296      -0.84724057      -7.15886369       0.80797686
 C             10.00000000      13.34957410      11.77925470       0.00000000      -1.39536614       0.80465465      -7.15676070       0.80809050
 H             10.00000000      12.14356570      10.00000000       0.00000000       0.00000000       0.22619359      -5.56085175       0.61792829
 H             10.00000000      10.00192700      11.23600220      -0.00000000       0.21738733       0.16559136      -5.55601407       0.61838702
 H             10.00000000      10.00000000      13.71457580      -0.00000000       0.22575607      -0.14774149      -5.55914151       0.61823092
 H             10.00000000      12.14356570      14.95173040       0.00000000       0.00000000      -0.26075952      -5.55792432       0.61824050
 H             10.00000000      14.28713140      13.71457580      -0.00000000      -0.22575607      -0.14774149      -5.55914151       0.61823092
 H             10.00000000      14.28520440      11.23600220      -0.00000000      -0.21738733       0.16559136      -5.55601407       0.61838702
      12
 Properties=species:S:1:pos:R:3:forces:R:3:local_energy:R:1:hirshfeld_v:R:1 Lattice="24.9507990000       0.0000000000    0.0000000000    0.0000000000   24.2871310000    0.0000000000    0.0000000000    0.0000000000   20.0043056000" energy=-76.286393 virial="-8.98014535          -0.00000000      0.00000000     -0.00000000     -8.91773108     -0.00000000      0.00000000     -0.00000000     -0.00010640" stress="0.00074080            0.00000000     -0.00000000      0.00000000      0.00073565      0.00000000     -0.00000000      0.00000000      0.00000001" volume=12122.275599
 C             11.08133620      12.14356550      10.00047530       1.68606406      -0.00000000       0.01412418      -7.15518419       0.80797779
 C             11.77835270      13.35080330      10.00000000       0.84269455      -1.45214055       0.00369062      -7.15632922       0.80800224
 C             13.17244630      13.35080330      10.00000000      -0.84269455      -1.45214055       0.00369062      -7.15632922       0.80800224
 C             13.86946280      12.14356550      10.00047530      -1.68606406      -0.00000000       0.01412418      -7.15518419       0.80797779
 C             13.17244630      10.93632770      10.00000000      -0.84269455       1.45214055       0.00369062      -7.15632922       0.80800224
 C             11.77835270      10.93632770      10.00000000       0.84269455       1.45214055       0.00369062      -7.15632922       0.80800224
 H             10.00000000      12.14356550      10.00430560       0.25381530      -0.00000000      -0.01176328      -5.55844018       0.61821085
 H             11.23716740      14.28713100      10.00095130       0.13588055      -0.22222498      -0.00487107      -5.55845692       0.61823911
 H             13.71363160      14.28713100      10.00095130      -0.13588055      -0.22222498      -0.00487107      -5.55845692       0.61823911
 H             14.95079900      12.14356550      10.00430560      -0.25381530       0.00000000      -0.01176328      -5.55844018       0.61821085
 H             13.71363160      10.00000000      10.00095130      -0.13588055       0.22222498      -0.00487107      -5.55845692       0.61823911
 H             11.23716740      10.00000000      10.00095130       0.13588055       0.22222498      -0.00487107      -5.55845692       0.61823911
      12
 Properties=species:S:1:pos:R:3:forces:R:3:local_energy:R:1:hirshfeld_v:R:1 Lattice="21.7448440000       0.0000000000    0.0000000000    0.0000000000   21.7448440000    0.0000000000    0.0000000000    0.0000000000   25.5666160000" energy=-63.051304 virial="-0.09281371           0.00000000      0.00000000      0.00000000     -0.09281371      0.00000000      0.00000000      0.00000000     -0.24693178" stress="0.00000768           -0.00000000     -0.00000000     -0.00000000      0.00000768     -0.00000000     -0.00000000     -0.00000000      0.00002043" volume=12088.873727
 C             10.40049700      10.40049700      10.92419700       0.81118967       0.81118967       0.06286691      -5.35681685       0.78290327
 C             11.34434700      11.34434700      10.92419700      -0.81118967      -0.81118967       0.06286690      -5.35681686       0.78290327
 H             10.00000000      10.00000000      11.84718300      -0.21618725      -0.21618725       0.01387627      -5.21573339       0.65592361
 H             11.74484400      11.74484400      11.84718300       0.21618725       0.21618725       0.01387628      -5.21573339       0.65592361
 H             10.00195800      10.00195800      10.00000000      -0.19645929      -0.19645929      -0.02447934      -5.19027573       0.61650195
 H             11.74288600      11.74288600      10.00000000       0.19645929       0.19645929      -0.02447934      -5.19027573       0.61650195
 C             10.40049700      11.34434700      14.64241900       0.81118967      -0.81118967      -0.06286691      -5.35681685       0.78290327
 C             11.34434700      10.40049700      14.64241900      -0.81118967       0.81118967      -0.06286691      -5.35681685       0.78290327
 H             10.00000000      11.74484400      13.71943300      -0.21618725       0.21618725      -0.01387627      -5.21573339       0.65592361
 H             11.74484400      10.00000000      13.71943300       0.21618725      -0.21618725      -0.01387627      -5.21573339       0.65592361
 H             10.00195800      11.74288600      15.56661600      -0.19645929       0.19645929       0.02447934      -5.19027573       0.61650195
 H             11.74288600      10.00195800      15.56661600       0.19645929      -0.19645929       0.02447934      -5.19027573       0.61650195
       6
 Properties=species:S:1:pos:R:3:forces:R:3:local_energy:R:1:hirshfeld_v:R:1 Lattice="21.7448440000       0.0000000000    0.0000000000    0.0000000000   21.7448440000    0.0000000000    0.0000000000    0.0000000000   21.8471830000" energy=-31.496347 virial="-0.12398132          -0.12398132      0.00000000     -0.12398132     -0.12398132      0.00000000      0.00000000      0.00000000      0.08762434" stress="0.00001200            0.00001200     -0.00000000      0.00001200      0.00001200     -0.00000000     -0.00000000     -0.00000000     -0.00000848" volume=10330.183571
 C             10.40049700      10.40049700      10.92419700       0.73671712       0.73671712       0.01137782      -5.36531393       0.78047640
 C             11.34434700      11.34434700      10.92419700      -0.73671712      -0.73671712       0.01137781      -5.36531393       0.78047640
 H             10.00000000      10.00000000      11.84718300      -0.15240826      -0.15240826       0.01802573      -5.19324342       0.61644046
 H             11.74484400      11.74484400      11.84718300       0.15240826       0.15240826       0.01802573      -5.19324342       0.61644046
 H             10.00195800      10.00195800      10.00000000      -0.17544694      -0.17544694      -0.02940355      -5.18961614       0.61650195
 H             11.74288600      11.74288600      10.00000000       0.17544694       0.17544694      -0.02940355      -5.18961614       0.61650195
       6
 Properties=species:S:1:pos:R:3:forces:R:3:local_energy:R:1:hirshfeld_v:R:1 Lattice="21.7448440000       0.0000000000    0.0000000000    0.0000000000   21.7448440000    0.0000000000    0.0000000000    0.0000000000   21.8471830000" energy=-31.496347 virial="-0.12398132           0.12398132      0.00000000      0.12398132     -0.12398132      0.00000000      0.00000000      0.00000000      0.08762433" stress="0.00001200           -0.00001200     -0.00000000     -0.00001200      0.00001200     -0.00000000     -0.00000000     -0.00000000     -0.00000848" volume=10330.183571
 C             10.40049700      11.34434700      10.92298600       0.73671712      -0.73671712      -0.01137782      -5.36531393       0.78047640
 C             11.34434700      10.40049700      10.92298600      -0.73671712       0.73671712      -0.01137782      -5.36531393       0.78047640
 H             10.00000000      11.74484400      10.00000000      -0.15240826       0.15240826      -0.01802573      -5.19324342       0.61644046
 H             11.74484400      10.00000000      10.00000000       0.15240826      -0.15240826      -0.01802573      -5.19324342       0.61644046
 H             10.00195800      11.74288600      11.84718300      -0.17544694       0.17544694       0.02940355      -5.18961614       0.61650195
 H             11.74288600      10.00195800      11.84718300       0.17544694      -0.17544694       0.02940355      -5.18961614       0.61650195
      10