      17
 Properties=species:S:1:pos:R:3:forces:R:3:local_energy:R:1 Lattice="24.9485351000       0.0000000000    0.0000000000    0.0000000000   24.3500137000    0.0000000000    0.0000000000    0.0000000000   24.0796789000" energy=-99.990108 virial="-7.94304024           0.00000129      0.00000047      0.00000129     -7.94303816     -0.00000198      0.00000047     -0.00000198      1.88362269" stress="0.00054299           -0.00000000     -0.00000000     -0.00000000      0.00054299      0.00000000     -0.00000000      0.00000000     -0.00012877" volume=14628.336822
 C             13.86747920      12.21129940      10.00002140      -1.51114899      -0.03793834      -0.11466933      -7.10775019
 C             13.20229780      10.98660660      10.00000000      -0.79287223       1.29190668      -0.10908012      -7.10773931
 C             11.80908170      10.95030040      10.00002140       0.72271957       1.32766618      -0.11466929      -7.10775017
 C             11.08105730      12.13871090      10.00000000       1.51526237       0.04068634      -0.10908012      -7.10773926
 C             11.74622330      13.36342440      10.00002140       0.78843086      -1.28972362      -0.11466936      -7.10775009
 C             13.13942910      13.39970680      10.00000000      -0.72238960      -1.33259776      -0.10908014      -7.10773955
 H             14.94853510      12.23945650      10.00157770      -0.24167441      -0.00618498       0.00447054      -5.54505374
 H             13.76722020      10.06446720      10.00156160      -0.12617888       0.20576987       0.00389441      -5.54503028
 H             11.29293850      10.00000000      10.00157770       0.11548087       0.21238880       0.00447054      -5.54505378
 H             10.00000000      12.11054340      10.00156160       0.24128964       0.00638894       0.00389441      -5.54503039
 H             11.18131060      14.28556770      10.00157770       0.12619342      -0.20620225       0.00447054      -5.54505374
 H             13.65556400      14.35001370      10.00156160      -0.11511262      -0.21215984       0.00389441      -5.54503022
 C             12.47426140      12.17500810      13.71592120       0.00000017       0.00000194       0.23874390      -4.24657496
 H             13.06113900      13.01318230      14.07967890       0.06735699       0.09566704      -0.01725453      -4.93921334
 H             11.45494250      12.26417190      14.07967890      -0.11653039       0.01049900      -0.01725414      -4.93921335
 H             12.47426140      12.17500810      12.62997140      -0.00000041       0.00000081       0.45917073      -5.00917198
 H             12.90670270      11.24767010      14.07967870       0.04917364      -0.10616882      -0.01725245      -4.93921336
      12
 Properties=species:S:1:pos:R:3:forces:R:3:local_energy:R:1 Lattice="24.9485351000       0.0000000000    0.0000000000    0.0000000000   24.3500137000    0.0000000000    0.0000000000    0.0000000000   20.0015777000" energy=-76.070280 virial="-8.83746270           0.00000268     -0.00000000      0.00000268     -8.83746011      0.00000000     -0.00000000      0.00000000     -0.00005477" stress="0.00072731           -0.00000000      0.00000000     -0.00000000      0.00072731     -0.00000000      0.00000000     -0.00000000      0.00000000" volume=12150.901878
 C             13.86747920      12.21129940      10.00002140      -1.66129474      -0.04295316       0.00554463      -7.13149718
 C             13.20229780      10.98660660      10.00000000      -0.86802386       1.41628156       0.00616224      -7.13148394
 C             11.80908170      10.95030040      10.00002140       0.79344947       1.46020361       0.00554463      -7.13149714
 C             11.08105730      12.13871090      10.00000000       1.66055001       0.04358213       0.00616223      -7.13148388
 C             11.74622330      13.36342440      10.00002140       0.86784671      -1.41724624       0.00554463      -7.13149708
 C             13.13942910      13.39970680      10.00000000      -0.79252560      -1.45986844       0.00616224      -7.13148418
 H             14.94853510      12.23945650      10.00157770      -0.25455086      -0.00651072      -0.00580870      -5.54690113
 H             13.76722020      10.06446720      10.00156160      -0.13311314       0.21706041      -0.00589817      -5.54687764
 H             11.29293850      10.00000000      10.00157770       0.12163699       0.22370301      -0.00580870      -5.54690117
 H             10.00000000      12.11054340      10.00156160       0.25453466       0.00674892      -0.00589816      -5.54687775
 H             11.18131060      14.28556770      10.00157770       0.13291375      -0.21719071      -0.00580870      -5.54690113
 H             13.65556400      14.35001370      10.00156160      -0.12142338      -0.22381036      -0.00589817      -5.54687758
       5
 Properties=species:S:1:pos:R:3:forces:R:3:local_energy:R:1 Lattice="21.6061965000       0.0000000000    0.0000000000    0.0000000000   21.7655122000    0.0000000000    0.0000000000    0.0000000000   21.4497075000" energy=-24.009076 virial="0.18884406           -0.00000137      0.00000051     -0.00000137      0.18884358     -0.00000190      0.00000051     -0.00000190      0.15265405" stress="-0.00001872           0.00000000     -0.00000000      0.00000000     -0.00001872      0.00000000     -0.00000000      0.00000000     -0.00001513" volume=10087.152520
 C             11.01931890      10.92733800      11.08594980       0.00000017       0.00000195       0.03052721      -4.24836313
 H             11.60619650      11.76551220      11.44970750       0.07057079       0.10078790       0.02747668      -4.93921334
 H             10.00000000      11.01650180      11.44970750      -0.12257208       0.01072180       0.02747706      -4.93921335
 H             11.01931890      10.92733800      10.00000000      -0.00000040       0.00000084      -0.11295973      -4.94307238
 H             11.45176020      10.00000000      11.44970730       0.05200153      -0.11151248       0.02747877      -4.93921336
