      17
 Properties=species:S:1:pos:R:3:forces:R:3:local_energy:R:1:hirshfeld_v:R:1 Lattice="24.9485351000       0.0000000000    0.0000000000    0.0000000000   24.3500137000    0.0000000000    0.0000000000    0.0000000000   24.0796789000" energy=-100.126062 virial="-7.97123168           0.00000130      0.00000047      0.00000130     -7.97122960     -0.00000197      0.00000047     -0.00000197      1.77738643" stress="0.00054492           -0.00000000     -0.00000000     -0.00000000      0.00054492      0.00000000     -0.00000000      0.00000000     -0.00012150" volume=14628.336822
 C             13.86747920      12.21129940      10.00002140      -1.51160340      -0.03792720      -0.11382154      -7.11778952       0.80838733
 C             13.20229780      10.98660660      10.00000000      -0.79313209       1.29228833      -0.10803670      -7.11779357       0.80838909
 C             11.80908170      10.95030040      10.00002140       0.72295642       1.32805414      -0.11382150      -7.11778949       0.80838733
 C             11.08105730      12.13871090      10.00000000       1.51572283       0.04072056      -0.10803669      -7.11779352       0.80838908
 C             11.74622330      13.36342440      10.00002140       0.78864843      -1.29012272      -0.11382157      -7.11778942       0.80838732
 C             13.13942910      13.39970680      10.00000000      -0.72259019      -1.33301363      -0.10803672      -7.11779381       0.80838908
 H             14.94853510      12.23945650      10.00157770      -0.24667398      -0.00631206       0.00648144      -5.55195536       0.61819828
 H             13.76722020      10.06446720      10.00156160      -0.12879096       0.21002742       0.00593399      -5.55194007       0.61820034
 H             11.29293850      10.00000000      10.00157770       0.11787060       0.21678210       0.00648144      -5.55195540       0.61819828
 H             10.00000000      12.11054340      10.00156160       0.24628283       0.00652229       0.00593399      -5.55194018       0.61820033
 H             11.18131060      14.28556770      10.00157770       0.12880326      -0.21046846       0.00648145      -5.55195535       0.61819827
 H             13.65556400      14.35001370      10.00156160      -0.11749373      -0.21655074       0.00593399      -5.55194001       0.61820034
 C             12.47426140      12.17500810      13.71592120       0.00000016       0.00000194       0.20084480      -4.26086542       0.73388439
 H             13.06113900      13.01318230      14.07967890       0.06932820       0.09848101      -0.02175514      -4.94178015       0.58940252
 H             11.45494250      12.26417190      14.07967890      -0.11995296       0.01079914      -0.02175476      -4.94178016       0.58940252
 H             12.47426140      12.17500810      12.62997140      -0.00000041       0.00000081       0.48507514      -5.02142003       0.75796225
 H             12.90670270      11.24767010      14.07967870       0.05062499      -0.10928293      -0.02175306      -4.94178017       0.58940252
      12
 Properties=species:S:1:pos:R:3:forces:R:3:local_energy:R:1:hirshfeld_v:R:1 Lattice="24.9485351000       0.0000000000    0.0000000000    0.0000000000   24.3500137000    0.0000000000    0.0000000000    0.0000000000   20.0015777000" energy=-76.138207 virial="-8.87154308           0.00000268     -0.00000000      0.00000268     -8.87154049      0.00000000     -0.00000000      0.00000000     -0.00005478" stress="0.00073011           -0.00000000      0.00000000     -0.00000000      0.00073011     -0.00000000      0.00000000     -0.00000000      0.00000000" volume=12150.901878
 C             13.86747920      12.21129940      10.00002140      -1.66285964      -0.04299394       0.00554730      -7.13680257       0.80792148
 C             13.20229780      10.98660660      10.00000000      -0.86884173       1.41761663       0.00616476      -7.13678942       0.80792314
 C             11.80908170      10.95030040      10.00002140       0.79419660       1.46157924       0.00554730      -7.13680254       0.80792148
 C             11.08105730      12.13871090      10.00000000       1.66211515       0.04362289       0.00616475      -7.13678936       0.80792314
 C             11.74622330      13.36342440      10.00002140       0.86866447      -1.41858110       0.00554730      -7.13680248       0.80792147
 C             13.13942910      13.39970680      10.00000000      -0.79327287      -1.46124427       0.00616476      -7.13678966       0.80792314
 H             14.94853510      12.23945650      10.00157770      -0.25862619      -0.00661697      -0.00581111      -5.55291680       0.61818980
 H             13.76722020      10.06446720      10.00156160      -0.13524277       0.22053684      -0.00590072      -5.55289341       0.61819186
 H             11.29293850      10.00000000      10.00157770       0.12358265       0.22728548      -0.00581111      -5.55291684       0.61818980
 H             10.00000000      12.11054340      10.00156160       0.25861015       0.00685501      -0.00590072      -5.55289352       0.61819185
 H             11.18131060      14.28556770      10.00157770       0.13504343      -0.22066693      -0.00581111      -5.55291679       0.61818979
 H             13.65556400      14.35001370      10.00156160      -0.12336925      -0.22739289      -0.00590072      -5.55289335       0.61819186
       5
 Properties=species:S:1:pos:R:3:forces:R:3:local_energy:R:1:hirshfeld_v:R:1 Lattice="21.6061965000       0.0000000000    0.0000000000    0.0000000000   21.7655122000    0.0000000000    0.0000000000    0.0000000000   21.4497075000" energy=-24.009602 virial="0.18990278           -0.00000137      0.00000051     -0.00000137      0.18990230     -0.00000190      0.00000051     -0.00000190      0.15372125" stress="-0.00001883           0.00000000     -0.00000000      0.00000000     -0.00001883      0.00000000     -0.00000000      0.00000000     -0.00001524" volume=10087.152520
 C             11.01931890      10.92733800      11.08594980       0.00000017       0.00000195       0.03052769      -4.24838314       0.73388439
 H             11.60619650      11.76551220      11.44970750       0.07099481       0.10139349       0.02773981      -4.93933971       0.58940252
 H             10.00000000      11.01650180      11.44970750      -0.12330855       0.01078622       0.02774019      -4.93933972       0.58940252
 H             11.01931890      10.92733800      10.00000000      -0.00000040       0.00000084      -0.11375012      -4.94319955       0.58929055
 H             11.45176020      10.00000000      11.44970730       0.05231397      -0.11218249       0.02774190      -4.93933973       0.58940252
      24
 Properties=species:S:1:pos:R:3:forces:R:3:local_energy:R:1:hirshfeld_v:R:1 Lattice="26.6060844000       0.0000000000    0.0000000000    0.0000000000   24.5838098000    0.0000000000    0.0000000000    0.0000000000   24.2875954000" energy=-152.399425 virial="-6.37856311           8.25248856     -0.00000000      8.25248856    -11.88521257      0.00000000     -0.00000000      0.00000000    -17.59337200" stress="0.00040152           -0.00051948      0.00000000     -0.00051948      0.00074816     -0.00000000      0.00000000     -0.00000000      0.00110748" volume=15886.004130
 C             12.25521700      10.87023130      12.14379770      -0.95158431       1.36262582       0.00000000      -7.13644953       0.80826461
 C             11.84853880      11.43645900      13.35000250      -0.45923312       0.69550016      -1.39656975      -7.14301688       0.80887953
 C             11.84853880      11.43645900      10.93759290      -0.45923313       0.69550016       1.39656975      -7.14301688       0.80887953
 C             11.03624520      12.56906590      13.35075160       0.49365481      -0.66387240      -1.43830701      -7.14498952       0.80805431
 C             10.63156410      13.13692600      12.14379770       1.00038104      -1.35298081      -0.00000000      -7.14371537       0.80809747
 C             11.03624520      12.56906590      10.93684380       0.49365481      -0.66387240       1.43830701      -7.14498952       0.80805431
 H             12.16918880      10.99984560      10.00148270      -0.08954673       0.11349285       0.22446841      -5.55694696       0.61900903
 H             10.72054790      13.00821150      10.00000000       0.06816367      -0.11368176       0.23244564      -5.55379762       0.61825808
 H             10.00000000      14.01517490      12.14379770       0.15435605      -0.21415870      -0.00000000      -5.55317335       0.61824490
 H             10.72054790      13.00821150      14.28759540       0.06816367      -0.11368176      -0.23244564      -5.55379762       0.61825808
 H             12.16918880      10.99984560      14.28611270      -0.08954673       0.11349285      -0.22446841      -5.55694696       0.61900903
 H             12.89701690      10.00000000      12.14379770      -0.12113155       0.20980797       0.00000000      -5.56887240       0.62057538
 C             14.35086740      13.71357850      12.14379770       0.95158432      -1.36262582      -0.00000000      -7.13644953       0.80826461
 C             14.75754560      13.14735080      10.93759290       0.45923312      -0.69550016       1.39656975      -7.14301688       0.80887953
 C             14.75754560      13.14735080      13.35000250       0.45923313      -0.69550016      -1.39656975      -7.14301688       0.80887953
 C             15.56983920      12.01474390      10.93684380      -0.49365481       0.66387241       1.43830701      -7.14498952       0.80805431
 C             15.97452030      11.44688380      12.14379770      -1.00038104       1.35298081       0.00000000      -7.14371537       0.80809747
 C             15.56983920      12.01474390      13.35075160      -0.49365481       0.66387240      -1.43830701      -7.14498952       0.80805431
 H             13.70906750      14.58380980      12.14379770       0.12113154      -0.20980796      -0.00000000      -5.56887240       0.62057538
 H             14.43689560      13.58396420      14.28611270       0.08954673      -0.11349285      -0.22446841      -5.55694696       0.61900903
 H             15.88553650      11.57559830      14.28759540      -0.06816367       0.11368176      -0.23244564      -5.55379762       0.61825808
 H             16.60608440      10.56863490      12.14379770      -0.15435605       0.21415870       0.00000000      -5.55317335       0.61824490
 H             15.88553650      11.57559830      10.00000000      -0.06816367       0.11368176       0.23244564      -5.55379762       0.61825808
 H             14.43689560      13.58396420      10.00148270       0.08954673      -0.11349285       0.22446841      -5.55694696       0.61900903
      12
 Properties=species:S:1:pos:R:3:forces:R:3:local_energy:R:1:hirshfeld_v:R:1 Lattice="22.8970169000       0.0000000000    0.0000000000    0.0000000000   24.0151749000    0.0000000000    0.0000000000    0.0000000000   24.2875954000" energy=-76.138148 virial="-3.04453219           4.24092395      0.00000000      4.24092395     -5.91052572     -0.00000000      0.00000000     -0.00000000     -8.80755506" stress="0.00022797           -0.00031755     -0.00000000     -0.00031755      0.00044256      0.00000000     -0.00000000      0.00000000      0.00065949" volume=13355.162543
 C             12.25521700      10.87023130      12.14379770      -0.91204809       1.39516095       0.00000000      -7.13584192       0.80780773
 C             11.84853880      11.43645900      13.35000250      -0.46366666       0.69446718      -1.40273924      -7.13734740       0.80794492
 C             11.84853880      11.43645900      10.93759290      -0.46366666       0.69446719       1.40273924      -7.13734739       0.80794492
 C             11.03624520      12.56906590      13.35075160       0.48107401      -0.66849856      -1.44341177      -7.13811443       0.80798267
 C             10.63156410      13.13692600      12.14379770       0.93854695      -1.37797527      -0.00000000      -7.13620618       0.80801390
 C             11.03624520      12.56906590      10.93684380       0.48107401      -0.66849856       1.44341177      -7.13811443       0.80798267
 H             12.16918880      10.99984560      10.00148270      -0.10305933       0.10247367       0.21742372      -5.55200571       0.61824804
 H             10.72054790      13.00821150      10.00000000       0.08075125      -0.11554013       0.23567138      -5.55270722       0.61825416
 H             10.00000000      14.01517490      12.14379770       0.16743540      -0.21765505      -0.00000000      -5.55273810       0.61824321
 H             10.72054790      13.00821150      14.28759540       0.08075125      -0.11554013      -0.23567138      -5.55270722       0.61825416
 H             12.16918880      10.99984560      14.28611270      -0.10305933       0.10247367      -0.21742372      -5.55200571       0.61824804
 H             12.89701690      10.00000000      12.14379770      -0.18413105       0.17466562      -0.00000000      -5.55301245       0.61806705
      12
 Properties=species:S:1:pos:R:3:forces:R:3:local_energy:R:1:hirshfeld_v:R:1 Lattice="22.8970169000       0.0000000000    0.0000000000    0.0000000000   24.0151749000    0.0000000000    0.0000000000    0.0000000000   24.2875954000" energy=-76.138148 virial="-3.04453219           4.24092395     -0.00000000      4.24092395     -5.91052572      0.00000000     -0.00000000      0.00000000     -8.80755507" stress="0.00022797           -0.00031755      0.00000000     -0.00031755      0.00044256     -0.00000000      0.00000000     -0.00000000      0.00065949" volume=13355.162543
 C             10.64179990      13.14494360      12.14379770       0.91204809      -1.39516095      -0.00000000      -7.13584192       0.80780773
 C             11.04847810      12.57871590      10.93759290       0.46366666      -0.69446718       1.40273924      -7.13734739       0.80794492
 C             11.04847810      12.57871590      13.35000250       0.46366666      -0.69446718      -1.40273924      -7.13734739       0.80794492
 C             11.86077170      11.44610900      10.93684380      -0.48107401       0.66849856       1.44341177      -7.13811443       0.80798267
 C             12.26545280      10.87824890      12.14379770      -0.93854695       1.37797527       0.00000000      -7.13620618       0.80801390
 C             11.86077170      11.44610900      13.35075160      -0.48107401       0.66849855      -1.44341176      -7.13811443       0.80798267
 H             10.00000000      14.01517490      12.14379770       0.18413105      -0.17466561      -0.00000000      -5.55301245       0.61806705
 H             10.72782810      13.01532930      14.28611270       0.10305933      -0.10247367      -0.21742372      -5.55200571       0.61824804
 H             12.17646900      11.00696340      14.28759540      -0.08075125       0.11554014      -0.23567138      -5.55270723       0.61825416
 H             12.89701690      10.00000000      12.14379770      -0.16743540       0.21765505       0.00000000      -5.55273810       0.61824321
 H             12.17646900      11.00696340      10.00000000      -0.08075125       0.11554013       0.23567138      -5.55270723       0.61825416
 H             10.72782810      13.01532930      10.00148270       0.10305933      -0.10247367       0.21742372      -5.55200571       0.61824804
      24
 Properties=species:S:1:pos:R:3:forces:R:3:local_energy:R:1:hirshfeld_v:R:1 Lattice="24.9507990000       0.0000000000    0.0000000000    0.0000000000   24.2871314000    0.0000000000    0.0000000000    0.0000000000   27.3847776000" energy=-151.714547 virial="-7.25235048          -0.00000000      0.00000000     -0.00000000    -16.02704698      0.00000000      0.00000000      0.00000000     -4.21689067" stress="0.00043703            0.00000000     -0.00000000      0.00000000      0.00096579     -0.00000000     -0.00000000     -0.00000000      0.00025411" volume=16594.718827
 C             12.47539950      12.14356570      13.51366300       0.00000000      -0.00000000       2.15546667      -7.13678944       0.80775547
 C             12.47539950      10.93755730      14.21230190       0.00000000       1.19072147       0.92539849      -7.14414131       0.80809050
 C             12.47539950      10.93638900      15.60621820       0.00000000       1.45292864      -0.83699007      -7.14090503       0.80797686
 C             12.47539950      12.14356570      16.30320280       0.00000000       0.00000000      -1.66968973      -7.13585979       0.80802265
 C             12.47539950      13.35074240      15.60621820       0.00000000      -1.45292865      -0.83699008      -7.14090503       0.80797686
 C             12.47539950      13.34957410      14.21230190       0.00000000      -1.19072147       0.92539849      -7.14414131       0.80809050
 H             12.47539950      12.14356570      12.43304720      -0.00000000       0.00000000       1.37098128      -5.25741507       0.84607554
 H             12.47539950      10.00192700      13.66904940       0.00000000       0.34775608       0.10372720      -5.55330940       0.61840329
 H             12.47539950      10.00000000      16.14762300       0.00000000       0.22830499      -0.14947427      -5.55398003       0.61823092
 H             12.47539950      12.14356570      17.38477760       0.00000000       0.00000000      -0.26444716      -5.55260021       0.61824050
 H             12.47539950      14.28713140      16.14762300       0.00000000      -0.22830499      -0.14947427      -5.55398003       0.61823092
 H             12.47539950      14.28520440      13.66904940       0.00000000      -0.34775608       0.10372720      -5.55330940       0.61840329
 C             11.08133620      12.14356570      10.00047530       1.31185810      -0.00000000      -0.27054792      -7.08883515       0.80801519
 C             11.77835270      13.35080350      10.00000000       0.65700384      -1.12553520      -0.28266582      -7.09066252       0.80804491
 C             13.17244630      13.35080350      10.00000000      -0.65700383      -1.12553520      -0.28266582      -7.09066252       0.80804491
 C             13.86946280      12.14356570      10.00047530      -1.31185810      -0.00000000      -0.27054792      -7.08883515       0.80801519
 C             13.17244630      10.93632790      10.00000000      -0.65700383       1.12553520      -0.28266582      -7.09066252       0.80804491
 C             11.77835270      10.93632790      10.00000000       0.65700384       1.12553520      -0.28266582      -7.09066252       0.80804491
 H             10.00000000      12.14356570      10.00430560       0.23324647      -0.00000000      -0.00190727      -5.55102366       0.61825166
 H             11.23716740      14.28713120      10.00095130       0.12350270      -0.20427857      -0.00140728      -5.55121078       0.61827988
 H             13.71363160      14.28713120      10.00095130      -0.12350270      -0.20427857      -0.00140728      -5.55121078       0.61827988
 H             14.95079900      12.14356570      10.00430560      -0.23324647       0.00000000      -0.00190727      -5.55102366       0.61825166
 H             13.71363160      10.00000020      10.00095130      -0.12350270       0.20427857      -0.00140728      -5.55121078       0.61827988
 H             11.23716740      10.00000020      10.00095130       0.12350270       0.20427857      -0.00140728      -5.55121078       0.61827988
      12
 Properties=species:S:1:pos:R:3:forces:R:3:local_energy:R:1:hirshfeld_v:R:1 Lattice="20.0000000000       0.0000000000    0.0000000000    0.0000000000   24.2871314000    0.0000000000    0.0000000000    0.0000000000   24.9517304000" energy=-76.135663 virial="0.00000000            0.00000000     -0.00000000      0.00000000     -8.81568771     -0.00000000     -0.00000000     -0.00000000     -9.08512336" stress="-0.00000000          -0.00000000      0.00000000     -0.00000000      0.00072736      0.00000000      0.00000000      0.00000000      0.00074959" volume=12120.119098
 C             10.00000000      12.14356570      11.08061580      -0.00000000      -0.00000000       1.75215766      -7.13310620       0.80773926
 C             10.00000000      10.93755730      11.77925470       0.00000000       1.39674592       0.80544502      -7.13682137       0.80809050
 C             10.00000000      10.93638900      13.17317100       0.00000000       1.45801434      -0.84801697      -7.13891903       0.80797686
 C             10.00000000      12.14356570      13.87015560      -0.00000000       0.00000000      -1.66814505      -7.13466745       0.80802265
 C             10.00000000      13.35074240      13.17317100       0.00000000      -1.45801434      -0.84801697      -7.13891903       0.80797686
 C             10.00000000      13.34957410      11.77925470       0.00000000      -1.39674592       0.80544502      -7.13682137       0.80809050
 H             10.00000000      12.14356570      10.00000000       0.00000000       0.00000000       0.23026836      -5.55538101       0.61792829
 H             10.00000000      10.00192700      11.23600220      -0.00000000       0.22093199       0.16761797      -5.55057405       0.61838702
 H             10.00000000      10.00000000      13.71457580      -0.00000000       0.22928216      -0.14977009      -5.55370215       0.61823092
 H             10.00000000      12.14356570      14.95173040       0.00000000       0.00000000      -0.26482948      -5.55247526       0.61824050
 H             10.00000000      14.28713140      13.71457580      -0.00000000      -0.22928216      -0.14977009      -5.55370215       0.61823092
 H             10.00000000      14.28520440      11.23600220      -0.00000000      -0.22093199       0.16761797      -5.55057405       0.61838702
      12
 Properties=species:S:1:pos:R:3:forces:R:3:local_energy:R:1:hirshfeld_v:R:1 Lattice="24.9507990000       0.0000000000    0.0000000000    0.0000000000   24.2871310000    0.0000000000    0.0000000000    0.0000000000   20.0043056000" energy=-76.134078 virial="-9.01412179          -0.00000000      0.00000000     -0.00000000     -8.95173377     -0.00000000      0.00000000     -0.00000000     -0.00010636" stress="0.00074360            0.00000000     -0.00000000      0.00000000      0.00073845      0.00000000     -0.00000000      0.00000000      0.00000001" volume=12122.275599
 C             11.08133620      12.14356550      10.00047530       1.68761233      -0.00000000       0.01412435      -7.13524396       0.80797779
 C             11.77835270      13.35080330      10.00000000       0.84346740      -1.45348203       0.00369530      -7.13638986       0.80800224
 C             13.17244630      13.35080330      10.00000000      -0.84346740      -1.45348203       0.00369530      -7.13638986       0.80800224
 C             13.86946280      12.14356550      10.00047530      -1.68761233      -0.00000000       0.01412435      -7.13524396       0.80797779
 C             13.17244630      10.93632770      10.00000000      -0.84346740       1.45348203       0.00369530      -7.13638986       0.80800224
 C             11.77835270      10.93632770      10.00000000       0.84346740       1.45348203       0.00369530      -7.13638986       0.80800224
 H             10.00000000      12.14356550      10.00430560       0.25789157      -0.00000000      -0.01175679      -5.55299058       0.61821085
 H             11.23716740      14.28713100      10.00095130       0.13791297      -0.22575399      -0.00487888      -5.55301242       0.61823911
 H             13.71363160      14.28713100      10.00095130      -0.13791297      -0.22575399      -0.00487888      -5.55301242       0.61823911
 H             14.95079900      12.14356550      10.00430560      -0.25789157       0.00000000      -0.01175679      -5.55299058       0.61821085
 H             13.71363160      10.00000000      10.00095130      -0.13791297       0.22575399      -0.00487888      -5.55301242       0.61823911
 H             11.23716740      10.00000000      10.00095130       0.13791297       0.22575399      -0.00487888      -5.55301242       0.61823911
      12
 Properties=species:S:1:pos:R:3:forces:R:3:local_energy:R:1:hirshfeld_v:R:1 Lattice="21.7448440000       0.0000000000    0.0000000000    0.0000000000   21.7448440000    0.0000000000    0.0000000000    0.0000000000   25.5666160000" energy=-62.982541 virial="-0.06191365           0.00000000      0.00000000      0.00000000     -0.06191365      0.00000000      0.00000000      0.00000000     -0.35067355" stress="0.00000512           -0.00000000     -0.00000000     -0.00000000      0.00000512     -0.00000000     -0.00000000     -0.00000000      0.00002901" volume=12088.873727
 C             10.40049700      10.40049700      10.92419700       0.81158725       0.81158725       0.07778437      -5.34919685       0.78290327
 C             11.34434700      11.34434700      10.92419700      -0.81158725      -0.81158725       0.07778437      -5.34919685       0.78290327
 H             10.00000000      10.00000000      11.84718300      -0.22207005      -0.22207005       0.00820804      -5.21091851       0.65592361
 H             11.74484400      11.74484400      11.84718300       0.22207005       0.22207005       0.00820804      -5.21091851       0.65592361
 H             10.00195800      10.00195800      10.00000000      -0.19911188      -0.19911188      -0.02284503      -5.18552002       0.61650195
 H             11.74288600      11.74288600      10.00000000       0.19911188       0.19911188      -0.02284503      -5.18552002       0.61650195
 C             10.40049700      11.34434700      14.64241900       0.81158725      -0.81158725      -0.07778437      -5.34919685       0.78290327
 C             11.34434700      10.40049700      14.64241900      -0.81158725       0.81158725      -0.07778437      -5.34919685       0.78290327
 H             10.00000000      11.74484400      13.71943300      -0.22207005       0.22207005      -0.00820804      -5.21091851       0.65592361
 H             11.74484400      10.00000000      13.71943300       0.22207005      -0.22207005      -0.00820804      -5.21091851       0.65592361
 H             10.00195800      11.74288600      15.56661600      -0.19911188       0.19911188       0.02284503      -5.18552002       0.61650195
 H             11.74288600      10.00195800      15.56661600       0.19911188      -0.19911188       0.02284503      -5.18552002       0.61650195
       6
 Properties=species:S:1:pos:R:3:forces:R:3:local_energy:R:1:hirshfeld_v:R:1 Lattice="21.7448440000       0.0000000000    0.0000000000    0.0000000000   21.7448440000    0.0000000000    0.0000000000    0.0000000000   21.8471830000" energy=-31.458793 virial="-0.11517402          -0.11517402      0.00000000     -0.11517402     -0.11517402      0.00000000      0.00000000      0.00000000      0.08225183" stress="0.00001115            0.00001115     -0.00000000      0.00001115      0.00001115     -0.00000000     -0.00000000     -0.00000000     -0.00000796" volume=10330.183571
 C             10.40049700      10.40049700      10.92419700       0.73605479       0.73605479       0.01137755      -5.35629237       0.78047640
 C             11.34434700      11.34434700      10.92419700      -0.73605480      -0.73605480       0.01137754      -5.35629237       0.78047640
 H             10.00000000      10.00000000      11.84718300      -0.15481313      -0.15481313       0.01678929      -5.18837566       0.61644046
 H             11.74484400      11.74484400      11.84718300       0.15481313       0.15481313       0.01678930      -5.18837566       0.61644046
 H             10.00195800      10.00195800      10.00000000      -0.17783225      -0.17783225      -0.02816358      -5.18472835       0.61650195
 H             11.74288600      11.74288600      10.00000000       0.17783225       0.17783225      -0.02816358      -5.18472835       0.61650195
       6
 Properties=species:S:1:pos:R:3:forces:R:3:local_energy:R:1:hirshfeld_v:R:1 Lattice="21.7448440000       0.0000000000    0.0000000000    0.0000000000   21.7448440000    0.0000000000    0.0000000000    0.0000000000   21.8471830000" energy=-31.458793 virial="-0.11517402           0.11517402      0.00000000      0.11517402     -0.11517402      0.00000000      0.00000000      0.00000000      0.08225182" stress="0.00001115           -0.00001115     -0.00000000     -0.00001115      0.00001115     -0.00000000     -0.00000000     -0.00000000     -0.00000796" volume=10330.183571
 C             10.40049700      11.34434700      10.92298600       0.73605479      -0.73605479      -0.01137755      -5.35629237       0.78047640
 C             11.34434700      10.40049700      10.92298600      -0.73605479       0.73605479      -0.01137755      -5.35629237       0.78047640
 H             10.00000000      11.74484400      10.00000000      -0.15481313       0.15481313      -0.01678929      -5.18837566       0.61644046
 H             11.74484400      10.00000000      10.00000000       0.15481313      -0.15481313      -0.01678929      -5.18837566       0.61644046
 H             10.00195800      11.74288600      11.84718300      -0.17783225       0.17783225       0.02816358      -5.18472835       0.61650195
 H             11.74288600      10.00195800      11.84718300       0.17783225      -0.17783225       0.02816358      -5.18472835       0.61650195
      10