       2
 Properties=species:S:1:pos:R:3:velocities:R:3:forces:R:3:local_energy:R:1:fix_atoms:S:3 Lattice="30.0000000000       0.0000000000    0.0000000000    0.0000000000   30.0000000000    0.0000000000    0.0000000000    0.0000000000   30.0000000000" temperature=**************** pressure=114640.81748322 time_step=0.0100 time=0.000000 energy=-319.010621 virial="-8.18416649           0.00000000      0.00000000      0.00000000      0.00000000      0.00000000      0.00000000      0.00000000      0.00000000" stress="0.00030312           -0.00000000     -0.00000000     -0.00000000     -0.00000000     -0.00000000     -0.00000000     -0.00000000     -0.00000000" volume=27000.000000 step=0
 Si            10.00000000      10.00000000      10.00000000       1.00000000       0.00000000       0.00000000       2.72805550      -0.00000000       0.00000000    -159.50531074 F F F
 Si            13.00000000      10.00000000      10.00000000      -1.00000000       0.00000000       0.00000000      -2.72805550       0.00000000       0.00000000    -159.50531074 F F F
       2
 Properties=species:S:1:pos:R:3:velocities:R:3:forces:R:3:local_energy:R:1:fix_atoms:S:3 Lattice="30.0000000000       0.0000000000    0.0000000000    0.0000000000   30.0000000000    0.0000000000    0.0000000000    0.0000000000   30.0000000000" temperature=**************** pressure=114752.27815052 time_step=0.0100 time=9.296655 energy=-317.090071 virial="0.00000000            0.00000000      0.00000000      0.00000000      0.00000000      0.00000000      0.00000000      0.00000000      0.00000000" stress="-0.00000000          -0.00000000     -0.00000000     -0.00000000     -0.00000000     -0.00000000     -0.00000000     -0.00000000     -0.00000000" volume=27000.000000 step=1000
 Si            19.28042638      10.00000000      10.00000000       0.99978037       0.00000000       0.00000000       0.00000000       0.00000000       0.00000000    -158.54503553 F F F
 Si             3.71957362      10.00000000      10.00000000      -0.99978037      -0.00000000       0.00000000       0.00000000       0.00000000       0.00000000    -158.54503553 F F F
       2
 Properties=species:S:1:pos:R:3:velocities:R:3:forces:R:3:local_energy:R:1:fix_atoms:S:3 Lattice="30.0000000000       0.0000000000    0.0000000000    0.0000000000   30.0000000000    0.0000000000    0.0000000000    0.0000000000   30.0000000000" temperature=**************** pressure=114706.83067594 time_step=0.0100 time=18.592835 energy=-317.311729 virial="-3.87023638           0.00000000      0.00000000      0.00000000      0.00000000      0.00000000      0.00000000      0.00000000      0.00000000" stress="0.00014334           -0.00000000     -0.00000000     -0.00000000     -0.00000000     -0.00000000     -0.00000000     -0.00000000     -0.00000000" volume=27000.000000 step=2000
 Si            28.56085175      10.00000000      10.00000000       0.99991587       0.00000000       0.00000000      -0.93898952       0.00000000       0.00000000    -158.65586441 F F F
 Si            24.43914825      10.00000000      10.00000000      -0.99991587      -0.00000000       0.00000000       0.93898952      -0.00000000       0.00000000    -158.65586441 F F F
       2
 Properties=species:S:1:pos:R:3:velocities:R:3:forces:R:3:local_energy:R:1:fix_atoms:S:3 Lattice="30.0000000000       0.0000000000    0.0000000000    0.0000000000   30.0000000000    0.0000000000    0.0000000000    0.0000000000   30.0000000000" temperature=**************** pressure=114774.61122611 time_step=0.0100 time=28.594053 energy=-317.090071 virial="0.00000000            0.00000000      0.00000000      0.00000000      0.00000000      0.00000000      0.00000000      0.00000000      0.00000000" stress="-0.00000000          -0.00000000     -0.00000000     -0.00000000     -0.00000000     -0.00000000     -0.00000000     -0.00000000     -0.00000000" volume=27000.000000 step=3000
 Si             8.56085085      10.00000000      10.00000000       0.99987766       0.00000000       0.00000000       0.00000000       0.00000000       0.00000000    -158.54503553 F F F
 Si            14.43914915      10.00000000      10.00000000      -0.99987766      -0.00000000       0.00000000       0.00000000       0.00000000       0.00000000    -158.54503553 F F F
