     216
 Properties=species:S:1:pos:R:3:velocities:R:3:forces:R:3:local_energy:R:1:fix_atoms:S:3 Lattice="10.5350000000       0.0000000000    0.0000000000    0.0000000000   10.5350000000    0.0000000000    0.0000000000    0.0000000000   10.5350000000" temperature=2111.59281578 pressure=313149.53232412 time_step=1.0000 time=50.000000 energy=-1925.626483 energy_soap=-1392.59243763  energy_2b=-532.96829175 energy_3b=-0.06575345 energy_core_pot=0.00000000 energy_vdw=0.00000000 energy_exp=0.00000000 energy_xps=0.00000000 virial="189.87345958          0.25010698    -11.52766641      0.25010698    187.91624306     -3.82691656    -11.52766641     -3.82691656    190.43701509" stress="-0.16239051          -0.00021391      0.00985911     -0.00021391     -0.16071659      0.00327300      0.00985911      0.00327300     -0.16287249" volume=1169.239880 step=50
 C             10.52292797      10.49075256       0.04478836       0.01607043       0.01747505      -0.00876964       3.46550454       1.77238429      -0.93804624      -8.23211186 F F F
 C              0.92513197       0.76566144       0.91064749      -0.00602278       0.00078858      -0.00473350      -1.44516639       2.65066368      -1.11772507      -9.01852879 F F F
 C              0.04859008       1.65435778       1.81459515      -0.01605463      -0.01569946      -0.00551206       0.50358842       2.54843886      -1.61257626      -9.21943374 F F F
 C              0.94469065       2.58536612       2.67147654      -0.00229813      -0.00648560       0.01533278      -1.53552767       0.45922939       0.26330528      -9.20689722 F F F
 C              1.80928046      10.45125861       1.77821466       0.01428217       0.02624627      -0.01774793      -0.62059492       0.64207577      -1.53819414      -9.22305423 F F F
 C              2.65139067       0.87284017       2.62626364      -0.02968993      -0.02251219      -0.01013119      -1.38757991      -1.95719308       1.89079185      -8.49776563 F F F
 C              1.67843943       1.70916091      10.38096932      -0.00476557      -0.00757583      -0.01280181       2.16179378       0.98493924       4.30825638      -9.46649642 F F F
 C              2.60789551       2.69105965       0.92500760      -0.00698452       0.00457997       0.00739499       0.33890578      -0.81485430      -0.87349078      -9.04095779 F F F
 C              0.12270182      10.42907058       3.57825373       0.00760204      -0.00034204       0.00515295      -4.28341521       1.87638869      -1.08733024      -9.31198592 F F F
 C              0.90741450       0.82325079       4.35413419       0.00264617      -0.00262554       0.00724010       0.87500402      -0.66255109       2.53905379      -8.43408001 F F F
 C              0.01822175       1.64283112       5.20336657      -0.00835428       0.00136103      -0.00888097      -0.11548136       5.02227786       0.23140489      -9.22236140 F F F
 C              0.88623125       2.61880678       6.05171335      -0.00100063       0.01802689       0.02525332       0.91858495      -0.73201134       3.13248032      -9.11225823 F F F
 C              1.80673501       0.00028359       5.31199819       0.01394507      -0.00067010       0.01927323      -2.40498556      -0.00503623      -0.93904521      -9.10553055 F F F
 C              2.69951127       0.85493448       6.13740792       0.00047020       0.00065384       0.00403059      -0.67975386      -0.11708378       2.86601917      -8.72824066 F F F
 C              1.78661024       1.63144735       3.54013562      -0.03063703      -0.01182304       0.00749090      -0.42769123       4.32362975      -0.06033520      -9.23557604 F F F
 C              2.67804745       2.60478992       4.54535121       0.00357780      -0.01558825       0.00855803      -1.54376582      -1.16603113      -2.23674265      -9.02352757 F F F
 C             10.47288734       0.17086861       6.95490149       0.00419420       0.00208532      -0.00262492      -0.28258211      -5.12845295       0.35053429      -8.28224102 F F F
 C              0.82859016       0.90243149       7.80774338      -0.00156319      -0.00838591      -0.01515553       1.59445398       1.60057945       0.77310264      -9.11949121 F F F
 C             10.40961915       1.72665860       8.67719485       0.00042798       0.00046567      -0.01633254       2.47329221      -0.01307951       2.14115063      -9.38907824 F F F
 C              0.78996207       2.61830377       9.61155645       0.00622316      -0.00140568      -0.02290329       1.68596489      -1.64250707      -3.78471989      -8.70061393 F F F
 C              1.78872390       0.07621754       8.61164917       0.01227033       0.00917073       0.00975628      -1.85157107      -0.84212590       5.76829924      -8.43989488 F F F
 C              2.61431746       0.86474332       9.52699903      -0.00698152       0.01747633      -0.01830800       1.47873553       1.69789625       0.71745477      -8.76089582 F F F
 C              1.82913948       1.76868676       6.95875846       0.01323827       0.00737716      -0.00559573      -1.31413614      -0.56491714       0.60315480      -9.20834141 F F F
 C              2.79220000       2.57399909       7.89214558      -0.00124858      -0.01970776       0.00738587      -3.62043780       1.76884673      -1.00872926      -8.90449089 F F F
 C             10.50820382       3.48347358      10.35560351       0.00747550      -0.00101060      -0.00383164      -1.26595572       1.59409306       6.13023095      -8.87299445 F F F
 C              0.78562547       4.36326590       0.82232759      -0.01760734       0.01168045      -0.00048626       2.69597628       0.45930953       0.39820137      -9.03415975 F F F
 C             10.46375696       5.25358414       1.65293976      -0.02106770      -0.02521888      -0.01195160       2.09189062       0.79165324       1.89735753      -8.60634273 F F F
 C              0.81960488       6.22787507       2.65826110      -0.00531517       0.00108436       0.00509742       1.17957143      -2.10098686      -1.06530830      -8.82053467 F F F
 C              1.75989412       3.56363668       1.82785340      -0.02195172       0.01347246      -0.00100815      -1.28300903      -1.37601189      -1.62745236      -9.14906169 F F F
 C              2.60936486       4.43516913       2.76328460      -0.02945934       0.01114624       0.00656403      -1.19821024       0.84660012      -1.46265604      -9.02140590 F F F
 C              1.72242877       5.21148406      10.50150732      -0.00585537      -0.01025175      -0.01130795      -0.17538526      -0.13438582       2.74263068      -8.60955520 F F F
 C              2.67063726       6.04820253       0.83276872       0.01010080      -0.00675980      -0.01421986      -3.59653059       0.91275562       3.89393347      -8.82195526 F F F
 C             10.46282736       3.49782006       3.52368890      -0.01765205       0.00668099       0.01262465       3.61285880      -0.00073208      -1.23165326      -9.13267691 F F F
 C              0.82042433       4.33038452       4.43974681       0.00556756       0.00080452      -0.00060419       1.58548263       3.59427120      -0.24445479      -9.48474719 F F F
 C             10.50871186       5.28160826       5.50794182      -0.00717388      -0.00031824       0.00609042      -1.76471599      -3.70608735      -7.77254606      -7.99145845 F F F
 C              0.77848792       6.15418442       6.21202883       0.01058786       0.00305483       0.01373379       3.46232224       2.04287494       1.32002034      -9.03312595 F F F
 C              1.76375006       3.53507556       5.28867855      -0.01991973      -0.00309950       0.00286877       0.32562122      -1.00582982      -0.67157902      -8.62204375 F F F
 C              2.74993015       4.46237568       6.08598816      -0.00438278      -0.00045002       0.02435495      -4.54870222      -1.24595846       1.62745196      -9.39665929 F F F
 C              1.68393665       5.41387341       3.50052038      -0.00228789       0.00651324       0.00398911       1.49574887      -4.13909227       1.90068822      -8.93540131 F F F
 C              2.69316773       6.28801898       4.30281316      -0.01957532       0.00676709       0.01119670      -5.47452146      -4.33750532       4.35867229      -8.93141010 F F F
 C              0.02046903       3.45506103       7.03969227      -0.00377404       0.00559044       0.00496083      -1.70346090      -0.33108754      -4.24636732      -8.95136700 F F F
 C              0.95517584       4.29831622       7.80685355       0.00246394      -0.00285418       0.00424870      -1.26677479       2.04176896       1.81597750      -9.01303590 F F F
 C              0.18211463       5.27518410       8.74622154      -0.00971707      -0.00803409       0.01087889      -5.83498980      -0.04637101       0.57091483      -9.15748905 F F F
 C              0.90322771       6.14033106       9.69215906      -0.02390945      -0.01261634      -0.01032190       1.12545947      -0.10070415      -2.70530183      -8.93111908 F F F
 C              1.80394755       3.47166435       8.70786636      -0.00492000       0.00069171      -0.00238446      -0.47186214      -1.46875091       2.60235798      -9.12220731 F F F
 C              2.56399121       4.29866333       9.75690517       0.00814609      -0.00442846      -0.00492675       2.08934172       2.27315737      -4.31117045      -8.62169486 F F F
 C              1.70400888       5.28046247       6.92520616       0.00068635      -0.00740612       0.02848633       1.91981314      -2.78012461       2.50178395      -8.06882443 F F F
 C              2.52961522       5.98621693       7.83959254      -0.00257948      -0.00368284      -0.00382229       3.41947227       6.26162676       1.74561759      -9.00568717 F F F
 C              0.02627091       7.07977185      10.50328436      -0.00060683       0.00681149      -0.00405878      -1.08422285      -1.69250966      -0.83061662      -9.23464845 F F F
 C              0.94541240       7.93091692       0.71342048       0.01031590      -0.00538794       0.00547414      -3.48778287      -3.30731080       7.06421016      -8.42380187 F F F
 C              0.09391320       8.71659530       1.72255936       0.00226185       0.01266430       0.00285674      -1.83840535       1.46466997       1.84500926      -9.52147682 F F F
 C              0.94991086       9.61158431       2.67130709       0.00662744       0.00343991       0.00933469      -1.05794406      -0.26876178      -1.20550505      -8.64620653 F F F
 C              1.73059505       6.95915495       1.72986259       0.01039588      -0.00705924       0.00116597       1.77750718       3.22678734      -0.53541518      -9.52898225 F F F
 C              2.79396521       7.99383471       2.66377837       0.00883882      -0.00616456      -0.00872712      -5.23188773      -3.09067854      -1.70504644      -9.30484009 F F F
 C              1.74074361       8.72674431      10.48599308      -0.00132991      -0.02379518      -0.01048919       2.01634280       3.89683108      -2.06129809      -8.07339510 F F F
 C              2.58387647       9.54845123       0.81587822       0.00976216       0.02004888      -0.00803558       3.17783112       2.69459341       0.94407875      -8.99778404 F F F
 C             10.53373049       7.03345716       3.62742147      -0.01262328       0.00695081       0.01264151      -0.29954307      -1.51984981      -0.96726103      -8.86354855 F F F
 C              0.91271029       7.89965637       4.44756099       0.00589346      -0.01852463       0.02607218      -1.59222771       0.36273368       0.48990723      -8.98524018 F F F
 C             10.50427198       8.68510064       5.36077564      -0.00311518       0.01842744       0.02718781       0.43917460       4.09764713      -1.69913976      -8.82863185 F F F
 C              0.72820693       9.75449630       6.13904864       0.00749812       0.00223991       0.00526962       4.94969729      -2.21691727       1.93622934      -9.18887340 F F F
 C              1.72511167       7.04664626       5.33189455      -0.00783678       0.01528712      -0.00822070       0.22805731       1.03307583      -1.72619583      -8.96315054 F F F
 C              2.61971645       7.93656302       6.15078150       0.01846193       0.00922319       0.00074120      -1.90842445      -0.81090206       1.55831900      -9.23323381 F F F
 C              1.78471616       8.85062958       3.57532864      -0.00242577      -0.01496712       0.01362905       0.56169631      -3.62798311      -1.16645223      -8.87278643 F F F
 C              2.58198622       9.70425461       4.40202914      -0.00448979       0.00538599       0.01516754       2.55308519      -1.07480820       1.21225145      -8.73156872 F F F
 C             10.41422925       7.08527225       7.15992693       0.00814788       0.00712158      -0.01727327       4.21158713      -0.90957952      -2.52340721      -8.65064452 F F F
 C              0.82800501       7.95421724       8.13674559       0.02497714       0.00547751      -0.00871776       0.20954590       0.15048127      -7.46589712      -9.16746678 F F F
 C             10.48483791       8.94162085       8.81866374       0.00954420       0.01988408      -0.00375260       1.53092466      -2.12449646       0.37736477      -8.77222115 F F F
 C              0.95963181       9.75240722       9.67483545       0.00742280       0.01426068       0.00628157      -3.81566687      -1.82179683      -1.90024589      -9.26272771 F F F
 C              1.83836575       7.01124544       8.71185008       0.01695053      -0.00098728      -0.00037941      -5.07755296      -0.27583693       3.97765060      -8.44101987 F F F
 C              2.55711826       7.90356006       9.63940454       0.00997530      -0.02538640      -0.01852931       3.76713567      -3.47869269      -2.71026794      -8.77718114 F F F
 C              1.67613558       8.90862241       7.13519090       0.00081838       0.00175680      -0.00971174       0.55341836      -2.55440957      -2.66647466      -9.40575124 F F F
 C              2.65945058       9.68290679       7.96658124       0.01936392       0.00957264      -0.00434784      -1.54944754       0.40126316      -5.66929896      -8.14842087 F F F
 C              3.45406856      10.46991281      10.36638758       0.01775995       0.00630168      -0.01102645      -0.81831412       1.84689123       3.32325977      -9.23681349 F F F
 C              4.27164100       0.94095821       0.80171716       0.01452814       0.01611474      -0.01263958       1.79800499      -1.42273050       1.84432581      -9.18662021 F F F
 C              3.40898146       1.75954803       1.83767552      -0.01033212       0.00622216       0.02184475       1.96599469       2.32419709      -4.20271281      -8.69596008 F F F
 C              4.25874605       2.68169756       2.69763093      -0.00916599       0.00757925       0.02782887       2.17293090      -1.34298052      -0.03632174      -9.42042778 F F F
 C              5.10352913       0.13330726       1.74670291      -0.01091452       0.01192015      -0.02087923       3.62348411      -2.46104280       0.37590750      -8.91130382 F F F
 C              5.94642501       0.96520278       2.75718098      -0.02228479      -0.00646117      -0.00238915       4.77190596      -1.06388257      -5.80534711      -8.74239847 F F F
 C              5.32549273       1.76017745       0.06309058      -0.00438716       0.02036734      -0.00539606      -1.59216862       0.30558253      -2.56051402      -8.84515753 F F F
 C              6.17179128       2.60192706       0.92872862      -0.00012312       0.00146659       0.00060653      -0.80333854       2.51467371      -1.47600856      -9.04194650 F F F
 C              3.47853636       0.03731919       3.55659587       0.00263607      -0.02343979       0.00036993       1.22449565      -0.89439645      -0.87220273      -9.21027712 F F F
 C              4.37177464       0.90338397       4.44434028      -0.00081184      -0.01645681       0.00127920       0.37242884      -1.36545629      -0.34801557      -8.63023536 F F F
 C              3.58416061       1.67870008       5.36298004       0.00363650      -0.00176369      -0.01086946      -0.64173123       3.41725266      -0.47851416      -8.96786584 F F F
 C              4.58940871       2.60896644       6.30968089      -0.00085500      -0.00815160       0.02404469      -6.71304017      -1.79675921      -2.26600637      -9.04379621 F F F
 C              5.30242111       0.04603556       5.27725120       0.00600607      -0.02088046       0.00871654      -0.29303625      -2.13147213      -0.04191368      -9.22639423 F F F
 C              6.15785219       0.86808653       6.22000218       0.00538330       0.01096144       0.01341091       1.11180655      -1.45725493      -1.44034957      -8.88914475 F F F
 C              5.15502211       1.75244166       3.56681374      -0.01401503       0.00083237      -0.00765340       0.40619749       3.62953989       1.59684770      -8.80879703 F F F
 C              6.11736546       2.66662448       4.55981724      -0.00420936      -0.00461646      -0.00667805       0.86787237      -2.61255606      -4.71094265      -9.01179079 F F F
 C              3.58842135       0.04174295       7.10878911       0.02083125       0.01343465      -0.00366589      -0.85470416      -2.31990902      -3.05580696      -9.51525794 F F F
 C              4.50679522       0.86948476       7.95183775       0.02409091      -0.02126801      -0.01108901      -1.18971369      -0.55166839      -3.82194258      -7.60646799 F F F
 C              3.74084219       1.77244894       8.66509395       0.01100676       0.01102056      -0.00912184      -6.25848470       0.43864375       5.47777761      -8.73906362 F F F
 C              4.55835716       2.66328560       9.57985327       0.00203096       0.00346083      -0.01714752      -3.47956338      -1.81708512       3.47048560      -9.31153233 F F F
 C              5.27605333      10.53269874       8.68738068       0.02044505      -0.01859819      -0.01303525       1.53411640      -3.31910202       5.28937931      -9.18590131 F F F
 C              6.20400278       0.87797021       9.71789172       0.00590932       0.00688491      -0.01256909      -2.36750246      -0.85600124      -2.21930432      -9.28582267 F F F
 C              5.35905893       1.66444592       7.09980176      -0.00021393       0.00996792      -0.00236978       1.05947815       3.67270856      -1.64858238      -8.32560730 F F F
 C              6.28751562       2.66936777       7.85597205      -0.00021232      -0.00439157       0.00703002      -4.49950710      -5.72357239       3.18308304      -8.59036053 F F F
 C              3.58887295       3.63846612       0.10575467      -0.00674017      -0.01291858       0.01559339      -2.38635348      -4.58826952      -2.20565620      -9.32320855 F F F
 C              4.39489124       4.43230439       1.01236257      -0.02484123      -0.00981373       0.00128444       1.66992349       1.13530461      -2.30554318      -8.55120989 F F F
 C              3.52346216       5.35530314       1.91961774      -0.01243344      -0.00729425       0.00349899       0.91810271      -2.91860050      -3.33785081      -9.03170329 F F F
 C              4.51084413       6.28758168       2.70430707      -0.01525406       0.00786686       0.01878299      -3.77798110      -6.74064617      -1.53950107      -8.44711431 F F F
 C              5.32239604       3.62162481       1.74478721      -0.00991924       0.00348896       0.00990409      -1.26676870      -4.66094633       3.17287273      -8.87857592 F F F
 C              6.22426728       4.32769290       2.67274905      -0.00569298      -0.02273561      -0.02020924      -0.12065144       1.46577430      -0.35531221      -9.03627622 F F F
 C              5.35877292       5.21593505      10.48897735       0.00155311      -0.00483104       0.01375692      -2.28693635       1.45735339       1.44878518      -8.98979256 F F F
 C              6.27944156       6.13326593       0.82808627       0.02489058       0.00122317       0.02224441      -2.30626066      -0.88811832       0.62479839      -9.30695447 F F F
 C              3.38698381       3.45873297       3.65973207      -0.00634516       0.00531665       0.02522517       3.94292306       3.45219868      -3.18086220      -8.54370989 F F F
 C              4.38781008       4.41894090       4.39191357      -0.01859498       0.03161509      -0.00249039      -1.22256015      -0.68403151       1.13212596      -9.37466832 F F F
 C              3.45164829       5.41919434       5.23584848      -0.01720640      -0.00027076       0.02014461       3.52931078      -3.20546980      -1.22044985      -8.74550304 F F F
 C              4.35593183       6.24805285       6.07252092       0.00006886       0.01556887      -0.00913192      -2.05027555      -1.09143358       2.17177103      -8.68549953 F F F
 C              5.24384549       3.43120999       5.36289608      -0.00693354       0.00087734       0.01542241       0.92654341       4.94295134      -1.33530815      -8.32928130 F F F
 C              6.04081089       4.42478046       6.11237680      -0.00161203       0.01231498      -0.00101822       2.32603592      -0.09413711       1.79744989      -9.05930696 F F F
 C              5.30932398       5.24932417       3.53453381      -0.01011791       0.00307392       0.02599367       0.39031042       1.14384841       0.47626219      -9.16500169 F F F
 C              6.12628179       6.17098944       4.45102410       0.01762661       0.00475118       0.01148106       1.66919008      -0.51805097      -2.57771024      -9.00522951 F F F
 C              3.57735916       3.50948187       7.09661332      -0.00374678      -0.00195051       0.02082135       0.93311918      -0.28780792      -3.32324624      -8.65955437 F F F
 C              4.43147166       4.30047408       7.91756297      -0.00457279       0.00452646       0.00007231      -2.62424506       3.88865326      -0.56278370      -8.87602822 F F F
 C              3.38953986       5.23296967       8.80917642       0.01796555       0.00006630       0.01147632       2.89463349      -3.32779580      -0.24086013      -9.04111240 F F F
 C              4.32453460       5.99625515       9.70830608       0.00330492      -0.00446401       0.00204701       0.01406463       2.85126515      -4.17332448      -8.95529873 F F F
 C              5.32071118       3.41014672       8.67217830      -0.00817681      -0.00797592       0.01731914       2.21048815       5.46672616       2.24443089      -8.16810747 F F F
 C              6.13565642       4.37277580       9.57466500      -0.00034285       0.02008966      -0.00861790       2.01752827       0.43632848       1.15031472      -8.97445985 F F F
 C              5.11413897       5.34091533       6.98938479      -0.01437901       0.01610598      -0.00170453       5.10201139      -2.82615777      -0.29618835      -9.20075401 F F F
 C              6.17830991       6.13454993       7.79249402      -0.00253755       0.00870290      -0.00575965      -3.35737397       2.11274765       2.06901029      -8.95217823 F F F
 C              3.38591717       6.87245476      10.49207337       0.00973929      -0.00886379       0.00262931       5.19159752       3.98873820       0.08827652      -8.93630676 F F F
 C              4.44947588       7.80202152       0.77188353       0.00528553      -0.01510506       0.00474802      -2.69355238       1.43147484       1.90370561      -9.13918152 F F F
 C              3.56225316       8.75818574       1.68024447      -0.00941899      -0.00711990       0.00537451      -0.42894143       0.17785487       0.75621445      -9.11818046 F F F
 C              4.37020169       9.74759326       2.62179486      -0.00711768       0.00490301       0.00366253      -0.54231119      -1.13368422      -0.26708496      -8.79375023 F F F
 C              5.28476389       6.92363259       1.70014174       0.00221736       0.00794224       0.00205089       2.82093460       4.62281864      -0.20568816      -8.93734810 F F F
 C              6.15636679       7.94247047       2.58183623       0.02083993      -0.00415338      -0.00640243       2.03807694      -0.29260401       1.35149455      -9.35418435 F F F
 C              5.22161119       8.75598808      10.42012268      -0.00110197       0.01447117       0.00494631      -0.50198314      -0.39453201       2.87903806      -9.15102333 F F F
 C              6.18063507       9.72374842       0.92551822       0.01228111       0.00416448       0.00859923      -2.81105393      -1.08186469      -1.62467264      -9.53484545 F F F
 C              3.51740145       7.01325233       3.49519807       0.01705229      -0.00724510       0.00177197       3.79813703       6.02145181      -0.95003733      -7.85968580 F F F
 C              4.35057306       7.96048944       4.35776590       0.00718463      -0.00473584       0.00570320       1.24959179      -0.73363045       0.39275702      -8.75840402 F F F
 C              3.48163802       8.70285999       5.25047667       0.02557683       0.00032875       0.00133164       0.39078489       4.57120350       0.19640109      -9.13327213 F F F
 C              4.40688046       9.65002587       6.11578983      -0.00391465      -0.00016912       0.00766040      -0.02719505       0.36716477       0.98882227      -9.36166536 F F F
 C              5.18702027       7.08168251       5.22734991       0.01842771      -0.00230654      -0.01933374       2.91449401      -0.31048020      -0.21608771      -8.91738499 F F F
 C              6.12092585       7.90087345       6.07887779       0.01566842      -0.01064855       0.00088409       0.65913262      -0.49189238       0.86129381      -8.80124206 F F F
 C              5.26706235       8.89722713       3.48187955       0.00157945       0.01111624      -0.00205150       0.28407850      -2.51661164       0.03200309      -9.31692253 F F F
 C              6.20225543       9.70084630       4.36587622      -0.02717807      -0.01329531      -0.00307307      -0.62311090       0.32378121       0.31397638      -9.45640463 F F F
 C              3.45954893       7.03847136       7.00901962       0.00760664       0.00240739      -0.02397197      -0.03037336      -0.87821616      -1.93342223      -8.66824760 F F F
 C              4.33566426       7.89617343       7.80434335      -0.00561510      -0.00953981       0.00474423      -0.19601662      -1.44561098       0.66620196      -8.81241514 F F F
 C              3.41822941       8.69963001       8.63783653      -0.00610396       0.00330206       0.02343251       2.60870018       2.23388740       5.68109015      -8.68563325 F F F
 C              4.27719792       9.60352672       9.56901734      -0.00155776      -0.00356481       0.00524581       3.67277262       0.11696364      -0.63987110      -8.97004108 F F F
 C              5.15766268       6.96656203       8.63629967       0.00433058      -0.00157795      -0.01646509       2.55606734       0.18988351       3.95206844      -9.45246696 F F F
 C              6.04061265       7.82419418       9.62406885       0.01015361      -0.00383928      -0.01517453      -0.24240355       2.62550167      -1.53244053      -8.01331147 F F F
 C              5.27134960       8.73702811       6.91763053      -0.00680146      -0.01572850      -0.00867690      -0.40995209       1.20424449       2.14217122      -9.10955893 F F F
 C              6.15280195       9.59234469       7.88417200       0.01555623      -0.00461694      -0.01222630      -1.20339055       0.70092080       0.06806373      -9.17166534 F F F
 C              7.02435266      10.50536247       0.00840145      -0.01357116      -0.00165114       0.01357703      -1.35783219       2.03938587       0.96811310      -8.28257290 F F F
 C              7.77386350       0.89789723       0.96070237      -0.01071275       0.01082454       0.01176038       5.39638540      -2.67557233      -2.83043093      -8.95682242 F F F
 C              7.03422179       1.74425783       1.78513324      -0.01265881       0.00905043      -0.01267102      -3.12975986       1.81019070       1.24242307      -8.54540146 F F F
 C              7.94393423       2.52523667       2.66271108      -0.00038668      -0.01741990      -0.00463170      -1.56825978       3.37492710      -0.64261121      -8.87290506 F F F
 C              8.76992241       0.05017491       1.81460081      -0.01273972       0.01683040       0.00755885       1.54989593      -0.13619310       0.13771448      -9.17306931 F F F
 C              9.72635202       0.89372982       2.70327763      -0.01444883      -0.01499749      -0.00233561      -1.43947275      -2.08490422      -0.76814697      -9.20316748 F F F
 C              8.76687704       1.62351364      10.49394619      -0.00632698       0.00392746       0.00098686      -1.18035576       3.97672536       2.91502983      -9.13335183 F F F
 C              9.63597561       2.59039301       0.87065457      -0.01704272      -0.00725791      -0.01144804       1.39321750      -2.67361769      -2.05089979      -9.22052100 F F F
 C              7.00039172       0.20007702       3.40909373      -0.00937965       0.00277761       0.00992736      -0.12362967      -4.69329858       5.69093210      -8.57474725 F F F
 C              7.95240703       0.95530189       4.35241565      -0.01459725      -0.00982254      -0.00390694      -2.78506210      -0.84711593       2.42058553      -9.29498017 F F F
 C              6.96332266       1.77926890       5.35967596      -0.00633861       0.01677175      -0.01860501       2.58515355      -0.27982111      -1.69235654      -9.06319124 F F F
 C              7.89893139       2.63361687       6.17961100       0.01083177       0.00913255       0.00721862      -1.14304197      -1.56515722      -0.92569158      -8.71097211 F F F