     216
 Properties=species:S:1:pos:R:3:velocities:R:3:forces:R:3:local_energy:R:1:fix_atoms:S:3 Lattice="10.5490466667       0.0000000000    0.0000000000    0.0000000000   10.5490466667    0.0000000000    0.0000000000    0.0000000000   10.5490466667" temperature=2425.06029394 pressure=336627.19736166 time_step=1.0000 time=20.000000 energy=-1897.975562 energy_soap=-1379.87139202  energy_2b=-518.03827673 energy_3b=-0.06589310 energy_core_pot=0.00000000 energy_vdw=0.00000000 energy_exp=0.00000000 energy_xps=0.00000000 virial="197.97658618          2.87448500      1.45461744      2.87448500    207.84955358     -8.33161809      1.45461744     -8.33161809    199.33014578" stress="-0.16864528          -0.00244861     -0.00123911     -0.00244861     -0.17705551      0.00709724     -0.00123911      0.00709724     -0.16979830" volume=1173.923079 step=20
 C             10.52204233       0.14553510      10.37135397      -0.02265807      -0.00552773      -0.00234213       2.29555325      -1.72315982       3.28350696      -9.44569283 F F F
 C              0.90844696       1.07211456       0.73105984       0.00091690      -0.00453175      -0.00105514      -2.82536695      -6.11269916       3.79093352      -8.80283298 F F F
 C             10.44123160       1.78538860       1.70812500       0.00454363       0.01825543       0.00749015       1.28008066      -2.28712980       1.49360566      -8.57854807 F F F
 C              0.56248732       2.63908342       2.63535252      -0.00090052       0.00342300      -0.02117613       8.20593882      -1.11969322       2.00365593      -8.42746675 F F F
 C              1.70898664       0.01620622       1.58772474      -0.00967267      -0.00445403       0.02394379       2.21106410       2.09884421       3.66857284      -9.41018394 F F F
 C              2.57299851       0.93208471       2.75915746       0.01661030       0.02315438      -0.00093728      -0.69129815      -1.67202663      -3.21062655      -9.04941220 F F F
 C              1.80139861       1.93512692       0.01799126       0.00209170       0.00778616       0.00933313      -3.36419435      -8.31483351      -2.82520892      -7.15106569 F F F
 C              2.42060694       2.63476089       0.95716964      -0.00127066      -0.00044698      -0.00032226       5.69948579       3.42421477       2.38308471      -8.36466018 F F F
 C             10.49591550       0.01301967       3.50552027       0.00418109       0.01031972      -0.00755630       2.95594895       0.24237904       1.06046532      -8.67895145 F F F
 C              0.78996659       0.85929847       4.62626751      -0.00541257       0.01474315      -0.00972849       2.83175886       0.47560786      -5.08696774      -9.09009301 F F F
 C              0.00073121       1.73539971       5.53399833      -0.00578942      -0.00572075       0.01668440      -2.63118365      -0.99725698      -7.43775893      -8.43234125 F F F
 C              0.84422692       2.60692574       6.22983892      -0.01045121      -0.01808337      -0.01455805       0.43391302       1.15231386       3.41517883      -8.80935730 F F F
 C              1.79138621       0.00003797       5.37958484      -0.00183258      -0.00124121      -0.01261437       0.73165920      -0.44790168      -1.00669044      -9.13734677 F F F
 C              2.74627692       0.88901020       6.21327278      -0.01040752      -0.00764348      -0.00665982      -3.33517921      -2.15086054       0.88219039      -9.04543233 F F F
 C              1.67457459       1.75970331       3.62337318       0.00939951       0.00974627       0.00429903      -2.16135008      -0.32846262      -0.43546324      -9.09740804 F F F
 C              2.43379666       2.68479226       4.42935953      -0.01521260       0.02773340      -0.00795092       3.25586002      -0.47085992       1.86784568      -9.01805308 F F F
 C              0.01989895      10.42254731       7.07406312       0.01868498       0.00282887       0.01008539       3.55119209       5.33545624      -2.86071391      -8.69428590 F F F
 C              0.97823526       0.86170973       7.89460012       0.00357944      -0.01302352       0.02297825      -1.79466081      -0.89028319      -0.28268183      -8.29835078 F F F
 C              0.15998084       1.72985554       8.66472980       0.00378988       0.00808095       0.01741883      -5.48597384       1.32622252       3.59940711      -8.97340793 F F F
 C              0.91671687       2.56495411       9.65841467       0.00357474       0.00796911       0.04347721      -0.95160591       3.21560181      -3.00115321      -9.09257665 F F F
 C              1.84245548       0.05284625       8.70924801       0.00860484      -0.00803106      -0.01018510       1.80982097      -1.84104791       3.21340097      -8.96669402 F F F
 C              2.75888411       0.92772234       9.79287686      -0.00775500      -0.02301884       0.03056020      -3.66027000       2.62997186      -6.70835447      -8.95731766 F F F
 C              1.75502039       1.73910960       7.13202299      -0.00697355      -0.00090218       0.00592710       2.36499920       1.80739151      -4.42027466      -8.72082431 F F F
 C              2.59717241       2.72074826       7.91335578      -0.00119718       0.00590901       0.00195978       1.05672058      -5.73907400       0.47038597      -8.51994949 F F F
 C             10.43832754       3.40130832      10.46542980      -0.00122574      -0.01017962      -0.00386262       3.78535500       1.62190358       2.09064004      -8.88486643 F F F
 C              0.76230726       4.28978959       0.84654355       0.00034773      -0.00840478       0.00773799       0.02028875       3.22852479       1.03511417      -9.45156552 F F F
 C             10.43908202       5.34224715       1.86370712       0.01865731       0.01570859       0.01560553      -0.68189419      -5.13824528      -3.90704166      -9.40527729 F F F
 C              0.75255396       6.06524784       2.72451410      -0.00407376      -0.00208879       0.00564578       2.13637047       3.96056707      -0.29462876      -8.56784431 F F F
 C              1.49314971       3.46229449       1.82695520       0.01067063      -0.01858866       0.00197004       3.05571773       1.48776397      -1.28215346      -8.85419009 F F F
 C              2.45979861       4.37084658       2.65432790       0.01835917      -0.02107501      -0.00538588      -0.69183649       1.25271851       1.63058651      -8.99199731 F F F
 C              1.72183528       5.26721057      10.51843634       0.00494301       0.01344782       0.00298773      -0.56562566      -1.30178930      -0.09986445      -9.35199970 F F F
 C              2.55276387       6.09716682       0.92105554       0.00108232       0.00561155       0.00179050       2.13781854      -0.52268879      -2.00144037      -9.00403345 F F F
 C             10.52915176       3.47078425       3.62514002      -0.01557901      -0.00672549       0.00942686      -5.69763342       1.17970839       1.16758959      -8.40063210 F F F
 C              0.76290572       4.41571749       4.51519909      -0.00752980      -0.02580995       0.00379558       2.60742021      -2.40611798      -1.50232060      -8.43111376 F F F
 C             10.53556973       5.29746304       5.25521385       0.00099687       0.02101049       0.00786339      -0.92653008       0.38285709       3.78521607      -9.25690054 F F F
 C              1.08287252       6.07200579       6.21950570       0.00108859      -0.01456535      -0.00951881      -5.49843931       2.51397045       3.36591468      -8.46381818 F F F
 C              1.72842269       3.50488208       5.45344107       0.00562697       0.00344398       0.00641198      -4.21274258      -0.73614354      -3.51050017      -8.98250083 F F F
 C              2.48991074       4.26441879       6.35779067       0.00595266       0.00009391      -0.01327009       3.16073951       6.50499285      -1.75988903      -7.99441776 F F F
 C              1.58157619       5.29772524       3.68365435      -0.00108730      -0.00767838      -0.00839482       2.50147516      -1.45041487      -2.37693944      -8.96563288 F F F
 C              2.51681965       6.09218557       4.62568758       0.02407238      -0.00785907      -0.00368776       0.27651745       3.46462980      -4.75907185      -8.60846985 F F F
 C             10.47400540       3.54189529       7.12786857       0.00943499       0.00534928       0.01998224       2.31685256       0.48631215      -2.08389884      -8.62691327 F F F
 C              0.73151499       4.40018909       8.07519230      -0.00126098       0.00257816      -0.00406252       5.88291487      -1.92765063      -4.78854849      -8.62635634 F F F
 C             10.43230030       5.23441090       8.72034492       0.01058083       0.00242917       0.01046579       1.33692715       2.14081157       5.41576294      -8.54660185 F F F
 C              0.86891699       6.15060654       9.62013425       0.00939769       0.00962534       0.01137884      -0.46906595      -0.04797278       0.82829057      -8.97713167 F F F
 C              1.76717701       3.47117752       8.75571124      -0.00707711       0.01874947       0.00442173      -2.58574860       2.64640447       3.38291692      -8.58215647 F F F
 C              2.64596100       4.31221146       9.62126460      -0.01287278       0.00741591       0.00763041      -1.47026992       3.86635282       0.33831675      -9.19418870 F F F
 C              1.81583106       5.25769504       7.28541123      -0.00187241       0.01249846      -0.00967337      -1.74830612      -1.35637188      -4.46531458      -8.91628417 F F F
 C              2.81091632       6.22854086       8.01240312      -0.00242186      -0.00845698       0.00676148      -4.57270484      -2.66065168      -0.97676944      -8.59785256 F F F
 C              0.04979874       7.07828591      10.53975485       0.00815710      -0.00281728       0.00893915      -0.26028014      -0.38053138      -0.40837672      -8.80574942 F F F
 C              0.88803119       7.90949881       0.97182104      -0.00218941       0.01966875      -0.01677446       2.02303749       0.81438169      -3.28554473      -9.22186347 F F F
 C              0.05491992       8.89004391       1.82214643       0.00442483      -0.00551747      -0.02132980       1.56379686      -0.23720720      -5.46370406      -8.24893641 F F F
 C              0.90463829       9.66570955       2.66833223      -0.00496073       0.01346856      -0.00774874       0.71858542       2.12283392      -1.00213415      -9.00573574 F F F
 C              1.72860889       6.96187557       1.76649114      -0.02741195      -0.00988198       0.00761027      -0.90956192       0.80462032       1.55896279      -8.80369846 F F F
 C              2.53079402       7.79038907       2.71383307      -0.00542368       0.01258638       0.02150627       1.78192426       1.94047253      -1.61196364      -8.77139462 F F F
 C              1.95702992       8.85763780      10.52051803       0.01026462       0.02098922       0.01996340      -2.67288001      -1.28172808      -0.65569620      -9.06034469 F F F
 C              2.79764708       9.79762153       0.72678953      -0.01421357      -0.01102217       0.01015306      -3.44304804      -1.98123211       4.21073357      -8.51404455 F F F
 C             10.49815996       7.04795245       3.54406557       0.01823325       0.01190155      -0.03245856       1.86538381       2.56115027      -1.74708650      -8.55893464 F F F
 C              0.69165712       8.04752264       4.46511367       0.01550740      -0.00093657      -0.02891536       8.10700950      -7.13252703      -3.64272909      -8.86325703 F F F
 C              0.06025373       8.92217264       5.23340996       0.00586803      -0.01026402      -0.02905237      -2.86306503       0.91276222       3.29951052      -8.14700477 F F F
 C              1.03713360       9.66140780       6.23680057      -0.00276577       0.00010347      -0.01566780      -1.77022091       1.03580063      -1.72508123      -8.71640103 F F F
 C              1.78643436       7.05356175       5.50544760      -0.00400996      -0.00542006       0.00038145       0.00577043       0.11499143      -6.76411632      -8.56797604 F F F
 C              2.72891178       7.97516044       6.07023742       0.01504987      -0.02010150      -0.00109834       2.21893261      -2.65311973       5.35691986      -8.07740443 F F F
 C              1.74359108       8.66008140       3.59150218      -0.01071481       0.01620237      -0.01173765      -0.37130329       3.99296552      -0.41376329      -8.89367439 F F F
 C              2.76203124       9.50897630       4.47206392      -0.00711848       0.00108933      -0.02343241      -4.53626372       5.16010352      -1.92304815      -8.97398814 F F F
 C              0.30035792       7.03971555       7.09394714      -0.01260485       0.00036781       0.00301088      -7.16659124      -0.16350616      -3.50469805      -8.46458697 F F F
 C              1.05958425       7.98521199       7.73183755      -0.00194853      -0.01205818       0.02120111       0.78414232      -0.43400785       6.90381835      -8.47111910 F F F
 C              0.19160397       8.85002639       8.66077709       0.00050592      -0.02859455      -0.01147793      -2.21444780      -0.00911659       2.88529999      -9.09408147 F F F
 C              1.02689047       9.71892349       9.54345619       0.01076957      -0.00897841      -0.00578740      -1.28817794      -0.01075595       1.77935455      -8.98285234 F F F
 C              1.71150243       6.95600703       8.73611508       0.01340908       0.01587034       0.00226294       5.24115941       3.30537523       2.44088690      -8.79025949 F F F
 C              2.82617123       7.83816477       9.77990179      -0.00788995       0.03785282       0.02421187      -2.04346786       2.10116120      -3.72631622      -9.20327284 F F F
 C              2.09070993       8.82949763       6.97901104       0.00930844       0.00211909       0.01112584      -9.54275052       0.01434130       1.79467867      -7.84661771 F F F
 C              2.74291516       9.70557722       7.89465254       0.00591440      -0.01549745       0.01785719       3.56858410      -0.89629736       0.65386869      -9.01654446 F F F
 C              3.67269884       0.23589703       0.00619135       0.00637054      -0.00646353       0.01843705      -1.74324350      -8.08040606       0.30107728      -8.13399803 F F F
 C              4.41053369       1.01367372       0.87592901      -0.00487963      -0.00626351       0.02449090       0.30573617      -0.22825937       1.93117623      -8.99237391 F F F
 C              3.38157526       1.85907379       1.82662222       0.00636236      -0.01291255      -0.00831217       0.55582845      -1.79666561       0.67327837      -9.28166526 F F F
 C              4.20556620       2.70841712       2.79309061      -0.00331079      -0.00862719      -0.02362717       0.48782438      -1.89134098      -1.31907024      -8.62361840 F F F
 C              5.25041286      10.49586782       1.75269069       0.00105564      -0.01811378       0.01362904      -2.39776747       1.85761414      -1.07871378      -8.91000625 F F F
 C              6.10500355       0.92562946       2.52018984       0.01195341      -0.01027904       0.01773471      -2.90971789      -3.45019428       4.14448628      -8.90571004 F F F
 C              5.25961593       1.80933423      10.40448826      -0.00128635      -0.01699987       0.00917673      -1.52523992       1.13894395       3.74787420      -8.81406433 F F F
 C              6.03052536       2.76562194       0.74202643      -0.00370571      -0.01494254      -0.00363458       2.12049483      -4.42155070       3.08009155      -9.09611435 F F F
 C              3.41532497      10.47899149       3.53939872       0.00021891       0.01516915      -0.00192121       2.96842029      -0.05911638       0.03815309      -9.13266148 F F F
 C              4.36701051       0.76834537       4.43699396      -0.00391003       0.01473968       0.00078773      -0.82404160       1.83747780      -0.42817442      -9.12122758 F F F
 C              3.45249099       1.72109293       5.35513164      -0.01383702       0.00550579      -0.00565843       1.63288866       2.28725149      -3.87658377      -8.93334905 F F F
 C              4.25656573       2.72547210       6.04266051       0.00816031       0.01529613      -0.02752252       3.60175437      -2.74448133       4.79235805      -8.96815751 F F F
 C              5.27696443      10.50605008       5.28759707      -0.00201139       0.01965526      -0.01845634       0.60705447      -1.95371185      -1.93692797      -8.74212996 F F F
 C              6.21329954       0.78256028       6.00316433      -0.01569462      -0.00575126      -0.02227509      -2.78066932       3.15855925       3.61154235      -8.19316322 F F F
 C              5.18445631       1.70271603       3.59955709       0.00948195      -0.01645723      -0.00803469      -0.88460457       1.90101045      -2.53605437      -9.00624092 F F F
 C              6.03436338       2.67089720       4.27401430       0.00411175       0.01011477       0.00971115       0.62916778      -1.17748810       3.77266396      -9.14274641 F F F
 C              3.63040137      10.46308929       6.99445223      -0.00798386      -0.00678049       0.01362443       1.50412162       2.84699417       2.23038770      -8.72121163 F F F
 C              4.52957122       0.81615358       7.88244973      -0.02914091       0.01082227       0.01501009      -2.25035617      -0.05462314       0.43513213      -9.25008131 F F F
 C              3.48006752       1.73522393       8.77339267      -0.00778074       0.00695665      -0.00271490       2.49944460       2.17513975       0.86747653      -9.08536886 F F F
 C              4.20530292       2.70705392       9.75059505      -0.00911183       0.00189842      -0.00547027       6.85449141      -3.91168715      -6.67032237      -8.67763877 F F F
 C              5.41367628      10.40863142       8.79810680      -0.01485573       0.02369332      -0.00315523      -0.53327100       2.29836860      -2.08856578      -8.67962048 F F F
 C              6.12983790       0.81754869       9.63012179       0.00543494       0.00220210       0.00968691       1.68999972       3.28584569      -0.92973056      -8.46431326 F F F
 C              5.34101925       1.70038195       7.04086025      -0.01838222      -0.01120842      -0.00948963      -1.26945338       2.16935361      -1.05557435      -9.47671579 F F F
 C              6.11772984       2.70584834       8.02643089       0.00367994       0.03295350      -0.01257953       1.00334467      -1.17824711      -3.54154728      -9.07198424 F F F
 C              3.33538708       3.40813250      10.48246128       0.00019393       0.02453785      -0.00859075       1.85494248       4.61415951       6.54412619      -8.01185230 F F F
 C              4.29409142       4.24256312       0.93304655      -0.00362895      -0.00712544      -0.00843230      -2.38484219       3.75115796      -1.18400741      -8.96655061 F F F
 C              3.33631177       5.14122774       1.72616543      -0.00370381      -0.00066444      -0.00741235       2.50706161       1.61602727       2.07006101      -8.58470820 F F F
 C              4.32843791       5.95191488       2.64747854      -0.00219624       0.00755716      -0.00972072      -1.35178362       6.35496129       0.38880004      -9.18558533 F F F
 C              5.01528229       3.42188524       1.88173593       0.00659489       0.01662782      -0.02079113       5.57423682       4.52318688      -3.87940657      -8.58563833 F F F
 C              6.06784108       4.41475922       2.64467371      -0.01922514       0.02034597       0.01448716      -0.50305304      -1.19639990      -0.44360217      -8.85359728 F F F
 C              5.24540817       5.30547782       0.09740913       0.00364328      -0.00028099      -0.00854840       2.27594872      -3.73222092      -1.35364933      -8.62972932 F F F
 C              6.03929785       6.15717599       0.88399407      -0.02098005      -0.00390258      -0.00761878       6.86999551      -0.73228443       3.06370080      -8.81491903 F F F
 C              3.33818802       3.69364470       3.58833000      -0.01222713      -0.01206102      -0.02032194       0.90618292      -5.42916021       1.89793247      -8.94114555 F F F
 C              4.24289259       4.41694303       4.65872617       0.01728150      -0.02811854      -0.00130239      -1.81688200       4.06089691      -7.85821577      -8.29658382 F F F
 C              3.33506678       5.30712742       5.46259575       0.00108670      -0.00868407       0.00821688       4.44062494      -2.86550553      -1.14715945      -8.58700627 F F F
 C              4.45084047       6.12275095       6.09494537       0.01183596      -0.01459996       0.01856540      -0.89878025       3.19111908       2.96859013      -9.23354472 F F F
 C              5.17418805       3.69241402       5.28983788      -0.00426939      -0.00561203      -0.02159123       3.14842860      -6.52816058       1.89233090      -8.86056279 F F F
 C              6.19790748       4.45635044       6.24096638       0.00953896      -0.01505279      -0.00162212      -1.95829660      -0.51526429      -3.31603455      -8.34565223 F F F
 C              5.22398395       5.33991789       3.52550799       0.00158811      -0.01197211      -0.02865458       1.17459376      -3.41743025       0.90268783      -8.72555760 F F F
 C              6.22825652       6.16499925       4.23997953      -0.01530443      -0.01476960       0.00604207      -0.89184690      -0.21343716       5.07563394      -9.20915759 F F F
 C              3.43365929       3.50290258       7.04535393      -0.00525220       0.00702564      -0.01410652       4.29697754       0.25342768       0.62710304      -8.67798641 F F F
 C              4.50761657       4.47027629       7.86510723       0.02338631      -0.00845293      -0.01057805      -2.59759071       0.38192354       1.41986496      -9.23278673 F F F
 C              3.63554072       5.29815881       8.82005271      -0.00557342       0.03084238      -0.00737672       0.14910832      -0.02730326      -0.33732320      -9.21906714 F F F
 C              4.64298423       6.17080476       9.67942301       0.00827282       0.00601047       0.01719453      -7.64011242      -0.62070839       1.65050262      -8.09237535 F F F
 C              5.30760485       3.73711403       8.84117211      -0.01584975      -0.00618268      -0.00520960      -1.13015265      -6.11607083      -0.58269522      -8.86837108 F F F
 C              6.24097694       4.46182278       9.74827514      -0.00705572      -0.01104927       0.01352250      -3.48691933       0.82528287      -3.46148359      -8.31699136 F F F
 C              5.37224566       5.38233818       6.98728479       0.00923551      -0.00162787       0.00550098      -2.50496883      -1.09544225       0.84112436      -8.46960196 F F F
 C              6.18229993       6.27185112       7.84711443       0.02029459      -0.00848081       0.01473110       1.30301941      -1.17875533       2.52098251      -8.98843281 F F F
 C              3.72886028       6.98642769       0.00366329      -0.01158195       0.01021575       0.01116080      -4.71524712       1.17670825       2.25022910      -8.79405107 F F F
 C              4.42495319       7.96888304       0.97747770       0.00640970       0.01174516       0.00601845       0.32924593      -5.90676515      -2.42145541      -8.66584595 F F F
 C              3.49655866       8.80676038       1.69383603       0.00018883       0.00359540      -0.00765370      -0.36112521      -1.30537892       0.56191712      -8.81359011 F F F
 C              4.35055237       9.51416487       2.53763948       0.00953886      -0.01079277       0.00537603       0.89538796       5.25086093       3.94901489      -8.81855239 F F F
 C              5.37406380       6.99270920       1.88111080      -0.02511412      -0.02334567      -0.00207669      -5.50167169      -0.48307148      -3.66271088      -8.97841084 F F F
 C              6.14979129       7.84934703       2.70634629      -0.02169508       0.01081688      -0.01084470       2.95209460      -0.63105182      -5.15904356      -8.48653572 F F F
 C              5.32542183       8.67198369       0.07589284       0.00651367      -0.01521132      -0.00695665      -0.23894071       2.98266468      -2.57669896      -7.98416620 F F F
 C              5.95219711       9.62492932       0.84761155       0.01504286       0.00270934      -0.00295468       9.90741690       3.04099996       2.43328977      -8.19825549 F F F
 C              3.43475486       7.08467383       3.60934779      -0.02351789      -0.02919676       0.00139960       2.37939943      -4.15370372      -0.44755268      -9.51285731 F F F
 C              4.56340235       7.97847741       4.35359766      -0.01607508      -0.00652076       0.00182553      -6.46626574      -5.29701648       2.81412763      -8.81273933 F F F
 C              3.62854565       8.83410490       5.35137146      -0.00141851      -0.02697161      -0.00203634       2.42003162      -3.54624790      -3.56259145      -8.32200752 F F F
 C              4.58583178       9.56629626       6.20922500       0.00531505      -0.00347180       0.00130829      -4.80423553       2.54152636      -0.38412884      -8.90276433 F F F
 C              5.44653898       7.04953301       5.23624522      -0.01451491      -0.00810817       0.00863035      -3.12445417      -1.29343531      -1.85847053      -9.04393013 F F F
 C              6.28023488       7.94341605       6.00917028      -0.00379612       0.01040276       0.00619867      -0.85350062      -2.96201692       4.09870265      -8.72866544 F F F
 C              5.27790896       8.64485526       3.41104860       0.00208413      -0.01226929       0.00154605      -0.49738910       6.21005897       1.88706915      -8.02834197 F F F
 C              6.11113607       9.60794298       4.35343797       0.00163596      -0.00060792      -0.00928205      -2.82765054       1.05991174      -2.61840106      -8.16914031 F F F
 C              3.53232059       7.09196308       7.09188006       0.01414025      -0.00273206       0.03207887       3.36552731      -1.59214935      -2.00362211      -9.32554743 F F F
 C              4.47875192       7.89580565       7.91779737       0.02327489       0.01783316       0.01015973      -0.27525249      -0.88628652       1.56326124      -8.24787466 F F F
 C              3.71957168       8.76401103       8.77038913       0.01983595      -0.00423106      -0.02248016      -3.22660327       1.50571141       3.08008033      -9.36584165 F F F
 C              4.64360960       9.67074158       9.72322457       0.00723901       0.00487878       0.00767712      -5.64228879      -1.51803534      -2.00507863      -8.96227755 F F F
 C              5.35585826       7.09897607       8.90015142       0.01203093       0.01114924       0.01581553       2.84023167      -1.05668327      -4.17425679      -8.81082274 F F F
 C              6.33398626       7.93365198       9.72256461       0.01638011      -0.00083502       0.02558674      -1.99031205      -2.25775819      -0.87862183      -9.49463048 F F F
 C              5.36215381       8.65446195       7.11240957       0.01888392       0.00914617       0.00308678       0.05630831       1.89008371      -6.41064120      -8.14931285 F F F
 C              6.20941685       9.40767503       7.87411159       0.00095236       0.01815547       0.00223535      -0.20987065       9.17108252      -0.58937948      -8.45312123 F F F
 C              6.94394291       0.09557989       0.02008774       0.01200569      -0.01151139      -0.02064960       1.94553844      -3.82745872      -0.79892422      -8.93832333 F F F
 C              7.86749459       0.91253540       0.79588622      -0.00697615       0.00043680      -0.01112299      -1.29987627      -0.14733087       1.99042769      -9.05071322 F F F
 C              6.88797238       1.80410391       1.74150685       0.02263688      -0.00059373      -0.01144474       2.99318402       0.59230820      -2.53950615      -8.97785820 F F F
 C              7.81824441       2.66241621       2.58193424      -0.01348528       0.01217318      -0.00751610      -0.69237468      -2.25179919       0.03175507      -8.98297247 F F F
 C              8.68658130      10.47570726       1.69936229       0.00737410      -0.01922519      -0.01663844       1.33166273       4.43969101       0.99068096      -8.94397256 F F F
 C              9.64108439       0.84497627       2.69102499       0.00065204       0.01809604      -0.01411714      -1.82878114       0.58934824      -3.13479780      -9.05030054 F F F
 C              8.73589735       1.76335463      10.43899265       0.01553630      -0.00412900      -0.01479440       1.04475827      -0.27591626       2.03587415      -9.02034486 F F F
 C              9.70643509       2.60495674       0.84693988      -0.00497165       0.02380396       0.01705820      -6.82479198      -0.14186197      -1.09629175      -8.55509453 F F F
 C              6.83263285      10.40222203       3.46424786       0.01361434       0.00108862      -0.03628245       4.87195983       5.14184408      -1.92355915      -9.08111342 F F F
 C              7.74877794       0.80747514       4.35170119       0.01130224      -0.01167661      -0.02412841       2.48659493       0.15781274      -2.79015105      -8.72799473 F F F
 C              7.01425931       1.70581761       5.24901493      -0.01443204      -0.01344975       0.00521604      -2.37418644       2.11697260      -2.78679250      -8.89197459 F F F
 C              7.80849271       2.63841489       6.05064427      -0.01176588      -0.00358668      -0.00289729       1.36597345      -0.54354480       4.32634991      -9.06699862 F F F